/*--------------------------------*- C++ -*----------------------------------*\
| =========                 |                                                 |
| \\      /  F ield         | OpenFOAM: The Open Source CFD Toolbox           |
|  \\    /   O peration     | Version:  4.1                                   |
|   \\  /    A nd           | Web:      www.OpenFOAM.org                      |
|    \\/     M anipulation  |                                                 |
\*---------------------------------------------------------------------------*/
FoamFile
{
    version     2.0;
    format      ascii;
    class       volVectorField;
    location    "0.75";
    object      U;
}
// * * * * * * * * * * * * * * * * * * * * * * * * * * * * * * * * * * * * * //

dimensions      [0 1 -1 0 0 0 0];

internalField   nonuniform List<vector> 
20400
(
(0 -1.29656e-05 0)
(0 -2.94801e-05 0)
(0 -3.94838e-05 0)
(0 -4.31045e-05 0)
(0 -4.17575e-05 0)
(0 -3.70796e-05 0)
(0 -3.06586e-05 0)
(0 -2.37923e-05 0)
(0 -1.73827e-05 0)
(0 -1.19396e-05 0)
(0 -7.65408e-06 0)
(0 -4.49849e-06 0)
(0 -2.32158e-06 0)
(0 -9.2249e-07 0)
(0 -9.93258e-08 0)
(0 3.24442e-07 0)
(0 4.89582e-07 0)
(0 5.00627e-07 0)
(0 4.30481e-07 0)
(0 3.26873e-07 0)
(0 2.18826e-07 0)
(0 1.22224e-07 0)
(0 4.42382e-08 0)
(0 -1.34003e-08 0)
(0 -5.20708e-08 0)
(0 -7.46977e-08 0)
(0 -8.47437e-08 0)
(0 -8.5606e-08 0)
(0 -8.02894e-08 0)
(0 -7.1263e-08 0)
(0 -6.04322e-08 0)
(0 -4.91781e-08 0)
(0 -3.84317e-08 0)
(0 -2.87604e-08 0)
(0 -2.04539e-08 0)
(0 -1.36022e-08 0)
(0 -8.16018e-09 0)
(0 -4.00014e-09 0)
(0 -9.50867e-10 0)
(0 1.17407e-09 0)
(0 2.5574e-09 0)
(0 3.36652e-09 0)
(0 3.74727e-09 0)
(0 3.82171e-09 0)
(0 3.68834e-09 0)
(0 3.42405e-09 0)
(0 3.08678e-09 0)
(0 2.71862e-09 0)
(0 2.34882e-09 0)
(0 1.99653e-09 0)
(0 1.67327e-09 0)
(0 1.38498e-09 0)
(0 1.13363e-09 0)
(0 9.18535e-10 0)
(0 7.37378e-10 0)
(0 5.86892e-10 0)
(0 4.63396e-10 0)
(0 3.63154e-10 0)
(0 2.82588e-10 0)
(0 2.18426e-10 0)
(0 1.67756e-10 0)
(0 1.28054e-10 0)
(0 9.71774e-11 0)
(0 7.33295e-11 0)
(0 5.50327e-11 0)
(0 4.10835e-11 0)
(0 3.05114e-11 0)
(0 2.25476e-11 0)
(0 1.65821e-11 0)
(0 1.21364e-11 0)
(0 8.8416e-12 0)
(0 6.4107e-12 0)
(0 4.62904e-12 0)
(0 3.32687e-12 0)
(0 2.38073e-12 0)
(0 1.69699e-12 0)
(0 1.20391e-12 0)
(0 8.50214e-13 0)
(0 5.98964e-13 0)
(0 4.19999e-13 0)
(0 2.93576e-13 0)
(0 2.03974e-13 0)
(0 1.41389e-13 0)
(0 9.74097e-14 0)
(0 6.68359e-14 0)
(0 4.5427e-14 0)
(0 3.189e-14 0)
(0 2.12334e-14 0)
(0 1.43494e-14 0)
(0 9.93879e-15 0)
(0 6.59845e-15 0)
(0 3.71337e-15 0)
(0 3.55088e-15 0)
(0 2.52894e-15 0)
(0 1.71154e-15 0)
(0 1.29316e-15 0)
(0 8.06456e-16 0)
(0 1.222e-15 0)
(0 3.20793e-16 0)
(0 1.02783e-15 0)
(0 6.18627e-16 0)
(0 5.0761e-16 0)
(0 1.34228e-17 0)
(0 1.12568e-15 0)
(0 5.26411e-16 0)
(0 6.93607e-16 0)
(0 3.82888e-16 0)
(0 5.54522e-16 0)
(0 1.57326e-15 0)
(0 7.5113e-16 0)
(0 5.60586e-16 0)
(0 1.8289e-16 0)
(0 2.55501e-16 0)
(0 5.25409e-16 0)
(0 1.18634e-15 0)
(0 1.94992e-16 0)
(0 1.0183e-15 0)
(0 5.3636e-16 0)
(0 1.01141e-15 0)
(0 5.60095e-16 0)
(0 1.43482e-15 0)
(0 -1.66574e-16 0)
(0 -4.33202e-16 0)
(0 -1.0997e-16 0)
(0 -9.41675e-17 0)
(0 3.38722e-16 0)
(0 5.45512e-16 0)
(0 3.57702e-16 0)
(0 -5.83259e-17 0)
(0 -1.26051e-16 0)
(0 4.74656e-16 0)
(0 6.0025e-16 0)
(0 -5.24083e-16 0)
(0 3.59463e-16 0)
(0 9.3882e-16 0)
(0 7.90118e-16 0)
(0 9.27979e-16 0)
(0 4.08718e-16 0)
(0 5.19896e-16 0)
(0 1.60122e-16 0)
(0 -5.64996e-16 0)
(0 -1.10972e-15 0)
(0 -7.29216e-16 0)
(0 -1.02877e-15 0)
(0 -9.48658e-16 0)
(0 -1.43757e-16 0)
(0 -4.81971e-16 0)
(0 -8.83909e-16 0)
(0 -1.09863e-15 0)
(0 -1.34944e-15 0)
(0 -1.2589e-15 0)
(0 -3.97233e-16 0)
(0 -4.38806e-16 0)
(0 -5.47847e-16 0)
(0 -4.54658e-16 0)
(0 -5.88831e-16 0)
(0 -7.2047e-17 0)
(0 8.77295e-17 0)
(0 -6.50281e-16 0)
(0 -3.79735e-16 0)
(0 -4.10428e-16 0)
(0 2.06762e-16 0)
(0 -4.26898e-16 0)
(0 -3.057e-16 0)
(0 -2.37511e-16 0)
(0 2.98872e-16 0)
(0 -4.3769e-16 0)
(0 -8.31046e-16 0)
(0 -8.77558e-16 0)
(0 -6.87367e-16 0)
(0 -7.96595e-17 0)
(0 -4.11964e-16 0)
(0 -4.97452e-16 0)
(0 -3.0668e-16 0)
(0 -5.37228e-16 0)
(0 -5.23815e-16 0)
(0 -2.13381e-16 0)
(0 -6.72166e-16 0)
(0 -5.75322e-16 0)
(0 -2.5096e-16 0)
(0 3.10226e-16 0)
(0 -2.87323e-16 0)
(0 -3.87243e-16 0)
(0 -5.12047e-16 0)
(0 3.23991e-16 0)
(0 -2.6697e-17 0)
(0 8.34958e-17 0)
(0 -5.03303e-16 0)
(0 -5.78382e-16 0)
(0 -1.03642e-15 0)
(0 -1.9212e-15 0)
(0 -9.9942e-16 0)
(0 -2.30213e-16 0)
(0 -5.48343e-16 0)
(0 -4.46874e-16 0)
(0 -5.45996e-16 0)
(0 -3.03619e-17 0)
(0 -6.80776e-16 0)
(0 -3.1247e-17 0)
(0 -8.70194e-16 0)
(0 1.31737e-16 0)
(0 2.60382e-16 0)
(0 -4.63578e-16 0)
(0 -3.8732e-16 0)
(0 4.49414e-16 0)
(0 6.47706e-17 0)
(0 -3.69277e-16 0)
(0 -2.46239e-16 0)
(0 -1.15675e-15 0)
(0 -1.27691e-15 0)
(0 -1.18975e-15 0)
(0 -5.53104e-16 0)
(0 -1.12943e-15 0)
(0 -8.23878e-16 0)
(0 -6.45553e-16 0)
(0 -8.88684e-16 0)
(0 -1.12625e-15 0)
(0 -9.46141e-16 0)
(0 -6.34078e-16 0)
(0 -1.6052e-15 0)
(0 -2.63753e-17 0)
(0 -3.02905e-16 0)
(0 -4.88045e-16 0)
(0 -3.90066e-16 0)
(0 -9.02245e-16 0)
(0 -1.05915e-15 0)
(0 5.86822e-17 0)
(0 -1.02255e-15 0)
(0 -1.2374e-15 0)
(0 -8.54413e-16 0)
(0 -9.4743e-16 0)
(0 -7.04207e-16 0)
(0 -1.12497e-15 0)
(0 -4.9817e-16 0)
(0 -3.19111e-16 0)
(0 -7.90617e-16 0)
(0 -8.33189e-16 0)
(0 -7.19752e-16 0)
(0 -7.51553e-16 0)
(0 -4.54853e-16 0)
(0 -4.83135e-16 0)
(0 -2.12715e-16 0)
(0 -4.42921e-16 0)
(0 -2.96649e-16 0)
(0 8.39929e-17 0)
(0 6.45147e-16 0)
(0 5.33413e-16 0)
(0 -2.59166e-16 0)
(0 1.76575e-16 0)
(0 -5.06573e-16 0)
(0 -6.38088e-16 0)
(0 1.7268e-16 0)
(0 -3.34463e-16 0)
(0 8.91105e-19 0)
(0 1.82505e-17 0)
(0 1.72207e-16 0)
(0 -2.76832e-17 0)
(0 -4.85514e-16 0)
(0 -2.56968e-16 0)
(0 -2.69749e-16 0)
(0 -2.27787e-16 0)
(0 -1.19211e-16 0)
(0 3.66877e-16 0)
(0 1.18839e-17 0)
(0 -1.03927e-16 0)
(0 1.89887e-16 0)
(0 2.50823e-16 0)
(0 -2.88713e-16 0)
(0 -2.56765e-17 0)
(0 3.43137e-16 0)
(0 7.93418e-16 0)
(0 -3.54539e-17 0)
(0 -4.45534e-16 0)
(0 -8.63242e-16 0)
(0 -4.95102e-16 0)
(0 4.01076e-16 0)
(0 6.99529e-16 0)
(0 -2.12143e-16 0)
(0 -4.17852e-16 0)
(0 -5.05823e-16 0)
(0 -2.6949e-16 0)
(0 -4.95322e-16 0)
(0 -4.03864e-16 0)
(0 -2.53423e-16 0)
(0 -3.57172e-16 0)
(0 -7.89203e-16 0)
(0 -1.30781e-15 0)
(0 -1.77489e-16 0)
(0 -5.7967e-16 0)
(0 -7.00244e-16 0)
(0 -1.34925e-16 0)
(0 -1.49311e-16 0)
(0 -4.09024e-16 0)
(0 -9.69566e-17 0)
(0 -3.04081e-16 0)
(0 -2.06786e-16 0)
(0 -2.27081e-16 0)
(0 -9.99015e-16 0)
(0 -8.97397e-16 0)
(0 -1.00858e-15 0)
(0 -3.49973e-16 0)
(0 -1.73663e-17 0)
(0 2.63272e-16 0)
(0 -2.22751e-16 0)
(0 -4.36926e-16 0)
(0 -8.21843e-16 0)
(0 -3.62482e-16 0)
(0 -5.86171e-16 0)
(0 -1.05616e-15 0)
(0 -9.63573e-16 0)
(0 -6.66753e-16 0)
(0 -7.78492e-16 0)
(0 -1.38625e-15 0)
(0 -1.37629e-15 0)
(0 -9.68392e-16 0)
(0 -7.0873e-16 0)
(0 -5.09713e-16 0)
(0 -5.49829e-16 0)
(0 -1.03995e-15 0)
(0 -1.06563e-15 0)
(0 -1.35124e-15 0)
(0 -1.38957e-15 0)
(0 -7.98458e-16 0)
(0 -5.72435e-16 0)
(0 -4.57333e-16 0)
(0 8.33432e-17 0)
(0 -1.83184e-16 0)
(0 -3.11259e-16 0)
(0 -6.92686e-16 0)
(0 -8.13625e-16 0)
(0 -1.23969e-15 0)
(0 -9.56245e-16 0)
(0 1.65804e-16 0)
(0 -9.27192e-17 0)
(0 -7.79511e-16 0)
(0 1.84264e-18 0)
(0 -3.49557e-16 0)
(0 -8.59646e-16 0)
(0 -1.41877e-15 0)
(0 -8.16089e-16 0)
(0 -4.05374e-16 0)
(0 1.46383e-16 0)
(0 4.08669e-16 0)
(0 1.45291e-16 0)
(0 -3.34379e-16 0)
(0 -6.50474e-16 0)
(0 -5.02778e-16 0)
(0 -1.17581e-15 0)
(0 -1.18152e-15 0)
(0 -7.12085e-16 0)
(0 -3.69662e-16 0)
(0 1.88249e-16 0)
(0 -3.28074e-16 0)
(0 -8.30603e-16 0)
(0 -9.7753e-16 0)
(0 -8.06933e-16 0)
(0 -4.26977e-16 0)
(0 -4.27124e-16 0)
(0 -5.92852e-16 0)
(0 -4.46973e-16 0)
(0 -5.28341e-16 0)
(0 -6.7145e-16 0)
(0 -7.62478e-16 0)
(0 -9.79214e-16 0)
(0 -1.04509e-15 0)
(0 -9.91888e-16 0)
(0 -4.90094e-16 0)
(0 2.67832e-18 0)
(0 -5.75122e-17 0)
(0 -1.78961e-16 0)
(0 -7.74851e-16 0)
(0 -7.91941e-16 0)
(0 -1.05514e-15 0)
(0 -7.90173e-16 0)
(0 -1.44252e-15 0)
(0 -1.10142e-15 0)
(0 -8.27756e-16 0)
(0 -2.72796e-16 0)
(0 9.84628e-17 0)
(0 1.00548e-15 0)
(0 3.28658e-16 0)
(0 3.50699e-16 0)
(0 6.45672e-16 0)
(0 -6.53182e-18 0)
(0 -7.80112e-16 0)
(0 -1.28427e-15 0)
(0 -6.77572e-16 0)
(0 -3.45572e-16 0)
(0 -6.1786e-16 0)
(0 -6.6267e-16 0)
(0 -2.65498e-16 0)
(0 -2.64807e-16 0)
(0 -4.24149e-16 0)
(0 -4.06662e-16 0)
(0 5.47603e-16 0)
(0 5.37413e-17 0)
(0 6.02764e-16 0)
(0 6.70247e-16 0)
(0 4.11689e-16 0)
(0 -2.2601e-16 0)
(0 -1.58939e-16 0)
(0 -1.70453e-16 0)
(0 -2.08122e-16 0)
(0 -5.32869e-16 0)
(0 2.13054e-16 0)
(0 -3.5569e-16 0)
(0 -4.38511e-16 0)
(0 -4.41628e-16 0)
(0 -8.66779e-16 0)
(0 -1.17604e-15 0)
(0 -1.07294e-15 0)
(0 -1.59749e-15 0)
(0 -2.71065e-16 0)
(0 -1.19691e-16 0)
(0 -3.22008e-16 0)
(0 -1.23093e-15 0)
(0 -7.69703e-16 0)
(0 -2.51435e-16 0)
(0 -3.6336e-16 0)
(0 2.06959e-16 0)
(0 -2.50199e-16 0)
(0 -8.92884e-16 0)
(0 -3.66014e-16 0)
(0 -2.0664e-16 0)
(0 -2.2075e-16 0)
(0 5.4143e-17 0)
(0 -1.28876e-17 0)
(0 2.61693e-16 0)
(0 1.02723e-16 0)
(0 -4.29681e-16 0)
(0 3.75037e-16 0)
(0 2.77152e-16 0)
(0 1.77631e-16 0)
(0 -1.1144e-15 0)
(0 -7.61939e-16 0)
(0 -5.62198e-16 0)
(0 -2.35601e-16 0)
(0 7.29148e-17 0)
(0 -7.4694e-17 0)
(0 -2.46247e-16 0)
(0 -6.03076e-16 0)
(0 -5.86165e-16 0)
(0 -6.80674e-16 0)
(0 -1.43751e-15 0)
(0 -6.17508e-16 0)
(0 -6.42316e-16 0)
(0 -3.14367e-16 0)
(0 3.51206e-16 0)
(0 3.0613e-16 0)
(0 3.17346e-16 0)
(0 3.15861e-16 0)
(0 2.65849e-16 0)
(0 -9.01805e-16 0)
(0 -6.16322e-16 0)
(0 -5.54441e-16 0)
(0 -8.58874e-16 0)
(0 -5.73051e-16 0)
(0 8.92065e-16 0)
(0 -3.50252e-16 0)
(0 -9.43323e-16 0)
(0 -8.48709e-16 0)
(0 -7.63008e-16 0)
(0 1.18539e-16 0)
(0 3.10177e-16 0)
(0 -2.69818e-16 0)
(0 -4.05035e-16 0)
(0 -9.48485e-16 0)
(0 -4.86493e-16 0)
(0 -4.1219e-16 0)
(0 -3.44724e-16 0)
(0 1.99244e-16 0)
(0 -2.29259e-16 0)
(0 2.82155e-16 0)
(0 3.5998e-16 0)
(0 -1.63268e-16 0)
(0 4.93348e-16 0)
(0 1.39043e-15 0)
(0 6.35959e-16 0)
(0 1.45368e-16 0)
(0 4.28182e-16 0)
(0 4.8322e-16 0)
(0 2.52069e-16 0)
(0 1.96934e-16 0)
(0 -4.6956e-16 0)
(0 -7.16235e-16 0)
(0 -8.60959e-16 0)
(0 -9.04518e-16 0)
(0 -7.21e-16 0)
(0 -3.42695e-16 0)
(0 -6.41463e-17 0)
(0 2.02465e-16 0)
(0 -7.28733e-17 0)
(0 -1.16467e-16 0)
(0 -5.4884e-16 0)
(0 -7.37731e-16 0)
(0 -9.20483e-16 0)
(0 -4.46077e-16 0)
(0 -5.0514e-16 0)
(0 -4.71044e-16 0)
(0 -5.72393e-17 0)
(0 -3.74267e-05 0)
(0 -8.9283e-05 0)
(0 -0.000119249 0)
(0 -0.000129939 0)
(0 -0.000125642 0)
(0 -0.000111368 0)
(0 -9.19236e-05 0)
(0 -7.12144e-05 0)
(0 -5.19394e-05 0)
(0 -3.56106e-05 0)
(0 -2.27816e-05 0)
(0 -1.33533e-05 0)
(0 -6.86136e-06 0)
(0 -2.69752e-06 0)
(0 -2.54014e-07 0)
(0 9.98606e-07 0)
(0 1.48148e-06 0)
(0 1.50676e-06 0)
(0 1.29179e-06 0)
(0 9.78648e-07 0)
(0 6.5358e-07 0)
(0 3.6367e-07 0)
(0 1.3004e-07 0)
(0 -4.23556e-08 0)
(0 -1.57805e-07 0)
(0 -2.25162e-07 0)
(0 -2.54858e-07 0)
(0 -2.57097e-07 0)
(0 -2.40893e-07 0)
(0 -2.13641e-07 0)
(0 -1.81045e-07 0)
(0 -1.47233e-07 0)
(0 -1.14982e-07 0)
(0 -8.59824e-08 0)
(0 -6.10938e-08 0)
(0 -4.05777e-08 0)
(0 -2.42933e-08 0)
(0 -1.18535e-08 0)
(0 -2.74217e-09 0)
(0 3.60111e-09 0)
(0 7.72501e-09 0)
(0 1.01316e-08 0)
(0 1.1258e-08 0)
(0 1.14696e-08 0)
(0 1.10614e-08 0)
(0 1.02632e-08 0)
(0 9.24825e-09 0)
(0 8.14229e-09 0)
(0 7.03255e-09 0)
(0 5.97614e-09 0)
(0 5.00733e-09 0)
(0 4.14369e-09 0)
(0 3.39098e-09 0)
(0 2.74706e-09 0)
(0 2.20488e-09 0)
(0 1.75461e-09 0)
(0 1.38518e-09 0)
(0 1.08536e-09 0)
(0 8.44453e-10 0)
(0 6.52624e-10 0)
(0 5.0116e-10 0)
(0 3.82502e-10 0)
(0 2.90232e-10 0)
(0 2.18979e-10 0)
(0 1.64319e-10 0)
(0 1.22653e-10 0)
(0 9.10805e-11 0)
(0 6.72979e-11 0)
(0 4.94851e-11 0)
(0 3.62144e-11 0)
(0 2.6378e-11 0)
(0 1.9126e-11 0)
(0 1.38061e-11 0)
(0 9.92271e-12 0)
(0 7.1e-12 0)
(0 5.05804e-12 0)
(0 3.58811e-12 0)
(0 2.53442e-12 0)
(0 1.78394e-12 0)
(0 1.25195e-12 0)
(0 8.74196e-13 0)
(0 6.07068e-13 0)
(0 4.1902e-13 0)
(0 2.88523e-13 0)
(0 1.9946e-13 0)
(0 1.37202e-13 0)
(0 9.54014e-14 0)
(0 6.32502e-14 0)
(0 4.42746e-14 0)
(0 3.04307e-14 0)
(0 2.09464e-14 0)
(0 1.46731e-14 0)
(0 9.40272e-15 0)
(0 8.04546e-15 0)
(0 5.05474e-15 0)
(0 3.37447e-15 0)
(0 1.90145e-15 0)
(0 1.60803e-15 0)
(0 1.00463e-15 0)
(0 2.3078e-15 0)
(0 1.29184e-15 0)
(0 7.96032e-16 0)
(0 -3.07093e-17 0)
(0 4.23524e-16 0)
(0 8.39109e-16 0)
(0 1.87482e-15 0)
(0 9.00806e-16 0)
(0 1.06731e-15 0)
(0 2.72422e-15 0)
(0 2.03142e-15 0)
(0 2.18206e-15 0)
(0 7.76879e-16 0)
(0 7.4343e-16 0)
(0 2.05127e-15 0)
(0 2.30558e-15 0)
(0 1.73482e-15 0)
(0 1.49392e-15 0)
(0 1.19048e-18 0)
(0 1.67561e-15 0)
(0 1.54223e-15 0)
(0 1.33447e-15 0)
(0 1.47644e-15 0)
(0 -4.41635e-16 0)
(0 8.3451e-16 0)
(0 -4.81909e-16 0)
(0 1.64827e-15 0)
(0 1.74747e-15 0)
(0 7.50807e-17 0)
(0 9.082e-16 0)
(0 9.89322e-16 0)
(0 1.70694e-15 0)
(0 8.00289e-16 0)
(0 1.13834e-16 0)
(0 1.89215e-15 0)
(0 2.30034e-15 0)
(0 1.113e-15 0)
(0 2.12727e-15 0)
(0 1.14656e-15 0)
(0 2.02337e-15 0)
(0 9.63254e-16 0)
(0 -2.34736e-15 0)
(0 -3.3529e-15 0)
(0 -3.12724e-15 0)
(0 -3.24687e-15 0)
(0 -2.68398e-15 0)
(0 -1.69216e-15 0)
(0 -1.14347e-15 0)
(0 -2.32297e-15 0)
(0 -1.40147e-15 0)
(0 -2.50922e-15 0)
(0 -2.0702e-15 0)
(0 -2.76805e-16 0)
(0 -1.12576e-15 0)
(0 -4.04188e-16 0)
(0 -1.2742e-15 0)
(0 -1.7574e-15 0)
(0 -1.68702e-15 0)
(0 -1.3704e-15 0)
(0 -2.11201e-15 0)
(0 -1.57685e-15 0)
(0 -1.83403e-15 0)
(0 -3.92358e-16 0)
(0 -1.8636e-15 0)
(0 -7.44509e-16 0)
(0 -9.42637e-16 0)
(0 -1.13478e-15 0)
(0 -9.65121e-16 0)
(0 -1.99826e-15 0)
(0 -1.54235e-15 0)
(0 -1.79913e-15 0)
(0 -1.26739e-15 0)
(0 -1.33921e-15 0)
(0 -1.44207e-15 0)
(0 -5.20641e-16 0)
(0 -1.88375e-15 0)
(0 -1.63477e-15 0)
(0 -1.51015e-15 0)
(0 -2.95038e-15 0)
(0 -2.16205e-15 0)
(0 -7.85895e-16 0)
(0 -7.19032e-16 0)
(0 -1.09822e-15 0)
(0 -1.80514e-15 0)
(0 -1.30694e-15 0)
(0 -1.43766e-15 0)
(0 -8.92151e-16 0)
(0 -2.40566e-16 0)
(0 -1.08688e-15 0)
(0 -1.34837e-15 0)
(0 -2.13332e-15 0)
(0 -1.91887e-15 0)
(0 -1.284e-15 0)
(0 -1.3618e-15 0)
(0 -1.64756e-15 0)
(0 -1.93607e-15 0)
(0 -3.0368e-15 0)
(0 -1.50013e-15 0)
(0 -9.45849e-16 0)
(0 -7.87256e-16 0)
(0 -2.47579e-15 0)
(0 -6.34072e-16 0)
(0 -2.33572e-16 0)
(0 -2.39171e-16 0)
(0 -1.2812e-15 0)
(0 -4.18681e-16 0)
(0 -7.2592e-16 0)
(0 -5.17073e-16 0)
(0 -1.87689e-15 0)
(0 -2.19505e-15 0)
(0 -4.29484e-15 0)
(0 -3.56254e-15 0)
(0 -2.41491e-15 0)
(0 -2.81559e-15 0)
(0 -2.19197e-15 0)
(0 -1.87256e-15 0)
(0 -3.14384e-15 0)
(0 -2.04933e-15 0)
(0 -3.50286e-15 0)
(0 -1.87254e-15 0)
(0 -3.07162e-15 0)
(0 -6.46693e-16 0)
(0 -7.2855e-16 0)
(0 -1.60323e-15 0)
(0 -7.80454e-16 0)
(0 -1.91967e-15 0)
(0 -2.69411e-15 0)
(0 -1.17444e-15 0)
(0 -2.96208e-15 0)
(0 -3.37027e-15 0)
(0 -2.80186e-15 0)
(0 -2.20684e-15 0)
(0 -1.26103e-15 0)
(0 -2.08234e-15 0)
(0 -2.23674e-15 0)
(0 -1.70467e-15 0)
(0 -1.01593e-15 0)
(0 -1.69158e-15 0)
(0 -1.56335e-15 0)
(0 -7.72648e-16 0)
(0 -1.76402e-15 0)
(0 -2.05209e-15 0)
(0 -9.84487e-16 0)
(0 -1.80986e-15 0)
(0 -1.06349e-15 0)
(0 -8.87036e-16 0)
(0 6.09148e-16 0)
(0 8.93439e-16 0)
(0 -4.2189e-16 0)
(0 -9.09855e-16 0)
(0 -2.56362e-15 0)
(0 -2.14576e-15 0)
(0 2.58502e-16 0)
(0 -5.18381e-16 0)
(0 -1.381e-15 0)
(0 -5.63851e-16 0)
(0 2.94931e-16 0)
(0 2.57246e-16 0)
(0 -1.60928e-15 0)
(0 1.96718e-16 0)
(0 1.98195e-16 0)
(0 -6.16314e-16 0)
(0 -7.09521e-16 0)
(0 -3.28701e-16 0)
(0 2.31665e-16 0)
(0 -4.14675e-16 0)
(0 8.09747e-16 0)
(0 1.15421e-15 0)
(0 -9.70488e-16 0)
(0 -3.37798e-16 0)
(0 1.03609e-15 0)
(0 -7.43963e-17 0)
(0 -8.00074e-18 0)
(0 -1.59159e-15 0)
(0 -1.24559e-15 0)
(0 -1.45484e-15 0)
(0 -1.12127e-16 0)
(0 -8.71088e-16 0)
(0 -1.34798e-15 0)
(0 -1.72113e-15 0)
(0 -1.1557e-15 0)
(0 -1.03582e-15 0)
(0 -1.75802e-16 0)
(0 -1.44142e-15 0)
(0 -3.79629e-16 0)
(0 -1.81854e-15 0)
(0 -1.40751e-15 0)
(0 -1.02636e-15 0)
(0 -4.52776e-16 0)
(0 -4.53463e-16 0)
(0 -1.07457e-15 0)
(0 -1.38585e-15 0)
(0 -6.31062e-16 0)
(0 -1.41065e-15 0)
(0 -8.26459e-16 0)
(0 -1.22208e-15 0)
(0 -1.22674e-15 0)
(0 -6.25235e-16 0)
(0 -2.68593e-15 0)
(0 -3.41934e-15 0)
(0 -3.28286e-15 0)
(0 -8.01657e-16 0)
(0 2.31681e-16 0)
(0 -3.72573e-17 0)
(0 -1.1868e-15 0)
(0 -2.55981e-15 0)
(0 -3.36482e-15 0)
(0 -2.30635e-15 0)
(0 -2.25234e-15 0)
(0 -2.95619e-15 0)
(0 -2.90857e-15 0)
(0 -2.28135e-15 0)
(0 -2.57924e-15 0)
(0 -3.53908e-15 0)
(0 -3.36467e-15 0)
(0 -2.94661e-15 0)
(0 -2.3549e-15 0)
(0 -1.30466e-15 0)
(0 -1.16489e-15 0)
(0 -1.85802e-15 0)
(0 -3.21529e-15 0)
(0 -4.20949e-15 0)
(0 -3.20389e-15 0)
(0 -3.29496e-15 0)
(0 -1.92969e-15 0)
(0 -2.54383e-15 0)
(0 -9.38781e-16 0)
(0 -1.52688e-16 0)
(0 -8.82061e-16 0)
(0 -2.32548e-15 0)
(0 -2.21912e-15 0)
(0 -2.48999e-15 0)
(0 -1.81612e-15 0)
(0 -1.1861e-16 0)
(0 -3.4119e-16 0)
(0 -1.74759e-15 0)
(0 -9.06042e-16 0)
(0 -1.30237e-15 0)
(0 -1.89825e-15 0)
(0 -2.30212e-15 0)
(0 -1.62414e-15 0)
(0 -1.59768e-15 0)
(0 -9.41207e-17 0)
(0 3.89753e-16 0)
(0 1.27542e-16 0)
(0 -8.36569e-16 0)
(0 -1.78814e-15 0)
(0 -1.57802e-15 0)
(0 -2.97516e-15 0)
(0 -2.65493e-15 0)
(0 -2.6734e-15 0)
(0 -4.28309e-16 0)
(0 1.09276e-15 0)
(0 2.98118e-16 0)
(0 -2.10266e-15 0)
(0 -2.57748e-15 0)
(0 -3.71257e-15 0)
(0 -3.26623e-15 0)
(0 -1.71137e-15 0)
(0 -6.29037e-16 0)
(0 -1.33213e-15 0)
(0 -1.51399e-15 0)
(0 -2.08302e-15 0)
(0 -2.0888e-15 0)
(0 -3.42664e-15 0)
(0 -3.93532e-15 0)
(0 -2.22739e-15 0)
(0 -5.17026e-16 0)
(0 -1.23783e-15 0)
(0 -7.20506e-16 0)
(0 -1.32153e-15 0)
(0 -1.66808e-15 0)
(0 -2.64429e-15 0)
(0 -3.16591e-15 0)
(0 -3.63907e-15 0)
(0 -3.60721e-15 0)
(0 -1.81072e-15 0)
(0 -9.70657e-16 0)
(0 -1.95691e-16 0)
(0 -2.31612e-16 0)
(0 9.02664e-16 0)
(0 8.47175e-16 0)
(0 8.99748e-16 0)
(0 1.1808e-15 0)
(0 -8.62531e-16 0)
(0 -2.24347e-15 0)
(0 -1.8061e-15 0)
(0 -1.60538e-15 0)
(0 -1.40423e-15 0)
(0 -1.86369e-15 0)
(0 -1.21704e-15 0)
(0 -5.1061e-16 0)
(0 -4.48063e-16 0)
(0 -8.59136e-16 0)
(0 -2.9274e-16 0)
(0 6.25689e-16 0)
(0 -8.09722e-17 0)
(0 1.05935e-15 0)
(0 1.90571e-15 0)
(0 9.70661e-16 0)
(0 2.69998e-16 0)
(0 -1.32129e-16 0)
(0 -5.15888e-16 0)
(0 -5.8626e-16 0)
(0 -1.83468e-15 0)
(0 -1.32861e-15 0)
(0 -2.9209e-15 0)
(0 -2.41057e-15 0)
(0 -1.07841e-15 0)
(0 -3.45617e-15 0)
(0 -3.5807e-15 0)
(0 -3.36219e-15 0)
(0 -3.03648e-15 0)
(0 -7.62142e-16 0)
(0 -1.05e-15 0)
(0 -8.92659e-16 0)
(0 -2.16042e-15 0)
(0 -1.57626e-15 0)
(0 -5.06932e-16 0)
(0 -1.86058e-15 0)
(0 -7.37049e-16 0)
(0 -2.01975e-15 0)
(0 -1.7094e-15 0)
(0 -8.2573e-16 0)
(0 -1.8416e-16 0)
(0 -1.73427e-16 0)
(0 -5.91202e-17 0)
(0 2.4919e-16 0)
(0 7.01513e-16 0)
(0 3.23522e-17 0)
(0 1.93491e-16 0)
(0 1.37103e-15 0)
(0 3.8313e-16 0)
(0 1.05524e-15 0)
(0 -2.30604e-15 0)
(0 -2.29064e-15 0)
(0 -1.32314e-15 0)
(0 -3.46819e-16 0)
(0 4.3329e-16 0)
(0 1.85989e-16 0)
(0 -1.18493e-15 0)
(0 -1.28603e-15 0)
(0 -4.36934e-16 0)
(0 -1.33777e-16 0)
(0 -1.43552e-15 0)
(0 -5.22201e-16 0)
(0 -1.13467e-15 0)
(0 -1.07608e-15 0)
(0 -2.75355e-16 0)
(0 9.40966e-16 0)
(0 7.24264e-16 0)
(0 1.07845e-15 0)
(0 9.10467e-16 0)
(0 2.74411e-16 0)
(0 -1.56728e-15 0)
(0 -1.77868e-15 0)
(0 -1.74874e-15 0)
(0 -1.36032e-15 0)
(0 1.04514e-15 0)
(0 -1.47007e-15 0)
(0 -2.21338e-15 0)
(0 -1.41156e-15 0)
(0 -8.25522e-16 0)
(0 1.04422e-15 0)
(0 5.87167e-16 0)
(0 -1.34908e-15 0)
(0 -1.38253e-15 0)
(0 -1.87723e-15 0)
(0 -2.08926e-16 0)
(0 -1.73092e-15 0)
(0 -1.36092e-15 0)
(0 -4.51898e-16 0)
(0 -1.7159e-15 0)
(0 -3.87566e-17 0)
(0 5.08378e-16 0)
(0 7.06621e-16 0)
(0 1.35551e-15 0)
(0 3.16041e-15 0)
(0 3.0997e-15 0)
(0 -1.43312e-16 0)
(0 1.0027e-15 0)
(0 1.07505e-15 0)
(0 -6.48709e-17 0)
(0 1.07495e-15 0)
(0 -1.72571e-15 0)
(0 -2.69031e-15 0)
(0 -3.13083e-15 0)
(0 -3.265e-15 0)
(0 -1.14673e-15 0)
(0 -6.25214e-16 0)
(0 -2.91669e-16 0)
(0 -5.38019e-16 0)
(0 -4.09719e-16 0)
(0 3.83642e-16 0)
(0 -1.72518e-15 0)
(0 -2.37405e-15 0)
(0 -3.05056e-15 0)
(0 -2.5529e-15 0)
(0 -1.45078e-15 0)
(0 -1.82025e-15 0)
(0 -1.85699e-15 0)
(0 -6.25954e-05 0)
(0 -0.000149393 0)
(0 -0.000199286 0)
(0 -0.000216854 0)
(0 -0.000209383 0)
(0 -0.00018534 0)
(0 -0.000152786 0)
(0 -0.000118236 0)
(0 -8.61592e-05 0)
(0 -5.90351e-05 0)
(0 -3.77531e-05 0)
(0 -2.21267e-05 0)
(0 -1.13726e-05 0)
(0 -4.47613e-06 0)
(0 -4.28298e-07 0)
(0 1.64804e-06 0)
(0 2.44984e-06 0)
(0 2.49351e-06 0)
(0 2.13871e-06 0)
(0 1.62073e-06 0)
(0 1.08252e-06 0)
(0 6.0223e-07 0)
(0 2.15015e-07 0)
(0 -7.07985e-08 0)
(0 -2.62239e-07 0)
(0 -3.7394e-07 0)
(0 -4.23172e-07 0)
(0 -4.26852e-07 0)
(0 -3.99928e-07 0)
(0 -3.54673e-07 0)
(0 -3.00551e-07 0)
(0 -2.44412e-07 0)
(0 -1.90868e-07 0)
(0 -1.42725e-07 0)
(0 -1.01407e-07 0)
(0 -6.73499e-08 0)
(0 -4.03183e-08 0)
(0 -1.96693e-08 0)
(0 -4.54604e-09 0)
(0 5.98226e-09 0)
(0 1.28265e-08 0)
(0 1.68202e-08 0)
(0 1.8689e-08 0)
(0 1.90396e-08 0)
(0 1.83614e-08 0)
(0 1.70361e-08 0)
(0 1.53511e-08 0)
(0 1.35151e-08 0)
(0 1.16729e-08 0)
(0 9.91936e-09 0)
(0 8.31123e-09 0)
(0 6.87769e-09 0)
(0 5.62829e-09 0)
(0 4.5595e-09 0)
(0 3.65958e-09 0)
(0 2.91221e-09 0)
(0 2.29903e-09 0)
(0 1.80141e-09 0)
(0 1.40155e-09 0)
(0 1.08317e-09 0)
(0 8.31775e-10 0)
(0 6.34836e-10 0)
(0 4.81692e-10 0)
(0 3.63433e-10 0)
(0 2.72711e-10 0)
(0 2.03557e-10 0)
(0 1.51159e-10 0)
(0 1.11689e-10 0)
(0 8.21254e-11 0)
(0 6.00995e-11 0)
(0 4.37752e-11 0)
(0 3.17395e-11 0)
(0 2.29102e-11 0)
(0 1.64661e-11 0)
(0 1.17819e-11 0)
(0 8.39357e-12 0)
(0 5.95501e-12 0)
(0 4.20666e-12 0)
(0 2.96046e-12 0)
(0 2.07632e-12 0)
(0 1.44892e-12 0)
(0 1.00554e-12 0)
(0 6.95186e-13 0)
(0 4.78061e-13 0)
(0 3.31018e-13 0)
(0 2.28249e-13 0)
(0 1.56151e-13 0)
(0 1.05938e-13 0)
(0 7.36084e-14 0)
(0 5.07284e-14 0)
(0 3.5343e-14 0)
(0 2.40314e-14 0)
(0 1.54776e-14 0)
(0 1.24819e-14 0)
(0 8.68394e-15 0)
(0 5.97226e-15 0)
(0 2.9747e-15 0)
(0 8.65716e-16 0)
(0 5.20683e-16 0)
(0 2.18776e-16 0)
(0 -7.12934e-16 0)
(0 -5.06328e-16 0)
(0 -6.07596e-16 0)
(0 -1.0014e-15 0)
(0 8.81205e-16 0)
(0 1.34061e-15 0)
(0 5.33812e-16 0)
(0 -1.85247e-16 0)
(0 1.67804e-15 0)
(0 3.02017e-15 0)
(0 2.24984e-15 0)
(0 1.47309e-15 0)
(0 8.96619e-16 0)
(0 1.72175e-15 0)
(0 1.15098e-15 0)
(0 1.23573e-15 0)
(0 -1.16537e-16 0)
(0 -6.96795e-17 0)
(0 6.72921e-16 0)
(0 2.73629e-16 0)
(0 -1.99979e-16 0)
(0 6.88439e-16 0)
(0 -9.84706e-16 0)
(0 -9.74497e-18 0)
(0 -8.02425e-16 0)
(0 7.31095e-16 0)
(0 1.58859e-15 0)
(0 3.61066e-16 0)
(0 6.92546e-16 0)
(0 1.04124e-15 0)
(0 1.31767e-15 0)
(0 6.60316e-16 0)
(0 1.42199e-16 0)
(0 1.59943e-15 0)
(0 1.49304e-15 0)
(0 8.31983e-16 0)
(0 8.89586e-16 0)
(0 -1.62525e-16 0)
(0 2.78459e-16 0)
(0 -4.16725e-16 0)
(0 -2.56753e-15 0)
(0 -3.35355e-15 0)
(0 -3.75859e-15 0)
(0 -3.83744e-15 0)
(0 -3.46968e-15 0)
(0 -2.95978e-15 0)
(0 -1.9533e-15 0)
(0 -1.82818e-15 0)
(0 -1.28598e-15 0)
(0 -2.44304e-15 0)
(0 -2.9871e-15 0)
(0 -2.47053e-15 0)
(0 -3.45833e-15 0)
(0 -2.14163e-15 0)
(0 -2.35599e-15 0)
(0 -2.00906e-15 0)
(0 -2.00726e-15 0)
(0 -1.39578e-15 0)
(0 -2.365e-15 0)
(0 -2.52716e-15 0)
(0 -2.33574e-15 0)
(0 -2.05318e-15 0)
(0 -3.40511e-15 0)
(0 -2.40351e-15 0)
(0 -2.49788e-15 0)
(0 -3.16698e-15 0)
(0 -2.05681e-15 0)
(0 -1.855e-15 0)
(0 -8.18501e-16 0)
(0 -1.39861e-15 0)
(0 -2.30098e-15 0)
(0 -2.51016e-15 0)
(0 -1.90131e-15 0)
(0 -1.28831e-15 0)
(0 -2.33197e-15 0)
(0 -3.00703e-15 0)
(0 -2.4225e-15 0)
(0 -2.68827e-15 0)
(0 -1.68075e-15 0)
(0 -4.59546e-16 0)
(0 -5.61759e-16 0)
(0 -3.51772e-16 0)
(0 -8.21218e-16 0)
(0 -5.67206e-16 0)
(0 -2.53161e-15 0)
(0 -2.3119e-15 0)
(0 -1.63616e-15 0)
(0 -1.65619e-15 0)
(0 -1.76301e-15 0)
(0 -2.44462e-15 0)
(0 -2.0844e-15 0)
(0 -1.05842e-15 0)
(0 -1.87912e-15 0)
(0 -6.27666e-16 0)
(0 -1.6721e-15 0)
(0 -1.73808e-15 0)
(0 -7.35305e-16 0)
(0 -1.05366e-15 0)
(0 -2.49296e-15 0)
(0 -2.44459e-15 0)
(0 -2.18978e-15 0)
(0 -1.5666e-15 0)
(0 -1.20616e-15 0)
(0 -2.07114e-15 0)
(0 -2.15515e-15 0)
(0 -2.07296e-15 0)
(0 -1.86581e-15 0)
(0 -3.47648e-15 0)
(0 -2.87922e-15 0)
(0 -4.613e-15 0)
(0 -4.14458e-15 0)
(0 -3.41715e-15 0)
(0 -2.59691e-15 0)
(0 -1.41035e-15 0)
(0 -2.7149e-15 0)
(0 -3.75641e-15 0)
(0 -2.61513e-15 0)
(0 -2.69467e-15 0)
(0 -1.57184e-15 0)
(0 -1.23103e-15 0)
(0 -7.21821e-16 0)
(0 -4.55922e-16 0)
(0 -7.1548e-16 0)
(0 -3.46927e-17 0)
(0 -2.17936e-15 0)
(0 -2.76557e-15 0)
(0 -2.1792e-15 0)
(0 -3.24852e-15 0)
(0 -3.74162e-15 0)
(0 -3.88302e-15 0)
(0 -2.7433e-15 0)
(0 -1.42606e-15 0)
(0 -1.61355e-15 0)
(0 -1.62065e-15 0)
(0 -1.91554e-15 0)
(0 -1.04471e-15 0)
(0 -6.25256e-16 0)
(0 -1.25864e-15 0)
(0 -3.71856e-16 0)
(0 -7.19306e-16 0)
(0 -1.76468e-15 0)
(0 -1.66257e-15 0)
(0 -2.48554e-15 0)
(0 -8.18178e-16 0)
(0 -6.41166e-16 0)
(0 -3.69355e-16 0)
(0 1.87011e-16 0)
(0 -7.94371e-16 0)
(0 -1.62089e-15 0)
(0 -2.25772e-15 0)
(0 -1.8554e-15 0)
(0 -1.59316e-15 0)
(0 -6.51691e-16 0)
(0 -1.96316e-15 0)
(0 -1.40641e-15 0)
(0 -5.84566e-16 0)
(0 3.72192e-16 0)
(0 -6.50251e-16 0)
(0 3.56099e-16 0)
(0 -8.32399e-16 0)
(0 -9.28993e-16 0)
(0 -3.22204e-16 0)
(0 -1.22937e-15 0)
(0 -2.71186e-16 0)
(0 -5.30601e-16 0)
(0 -1.0517e-15 0)
(0 7.77016e-16 0)
(0 -3.30185e-16 0)
(0 5.00378e-16 0)
(0 -7.47424e-16 0)
(0 -1.36203e-15 0)
(0 -7.58745e-16 0)
(0 -1.70648e-15 0)
(0 -1.11384e-15 0)
(0 -2.01456e-15 0)
(0 -1.74595e-15 0)
(0 -2.0986e-15 0)
(0 -2.46326e-15 0)
(0 -1.3154e-15 0)
(0 -1.05977e-15 0)
(0 -1.07321e-15 0)
(0 -2.82203e-16 0)
(0 -1.43307e-15 0)
(0 -1.77079e-15 0)
(0 -2.92004e-15 0)
(0 -1.62305e-15 0)
(0 1.7626e-16 0)
(0 -1.94623e-15 0)
(0 -7.83976e-16 0)
(0 -1.38317e-15 0)
(0 -1.46971e-15 0)
(0 -1.72884e-16 0)
(0 -1.83025e-16 0)
(0 -7.53098e-16 0)
(0 -1.34908e-15 0)
(0 -1.3833e-15 0)
(0 -6.57215e-16 0)
(0 -1.63892e-15 0)
(0 -2.59423e-15 0)
(0 -2.59458e-15 0)
(0 -1.51925e-15 0)
(0 1.35433e-16 0)
(0 -2.68043e-16 0)
(0 -2.23832e-15 0)
(0 -2.32847e-15 0)
(0 -3.29962e-15 0)
(0 -3.0276e-15 0)
(0 -2.92595e-15 0)
(0 -2.51483e-15 0)
(0 -2.94248e-15 0)
(0 -3.29096e-15 0)
(0 -3.39185e-15 0)
(0 -3.30671e-15 0)
(0 -3.18724e-15 0)
(0 -2.73184e-15 0)
(0 -3.49831e-15 0)
(0 -1.2557e-15 0)
(0 -1.62387e-15 0)
(0 -1.52142e-15 0)
(0 -3.30884e-15 0)
(0 -4.51631e-15 0)
(0 -4.12035e-15 0)
(0 -4.57129e-15 0)
(0 -3.45754e-15 0)
(0 -2.98517e-15 0)
(0 -2.52345e-15 0)
(0 -1.60228e-15 0)
(0 -2.17422e-15 0)
(0 -2.26369e-15 0)
(0 -3.355e-15 0)
(0 -3.2781e-15 0)
(0 -3.18468e-15 0)
(0 -2.27384e-15 0)
(0 -1.68908e-15 0)
(0 -1.87676e-15 0)
(0 -1.92637e-15 0)
(0 -1.37708e-15 0)
(0 -2.54607e-15 0)
(0 -1.36616e-15 0)
(0 -1.53035e-15 0)
(0 -1.74862e-15 0)
(0 -2.11964e-18 0)
(0 4.16391e-16 0)
(0 -5.34264e-16 0)
(0 -9.37803e-16 0)
(0 -1.73155e-15 0)
(0 -2.28391e-15 0)
(0 -3.41729e-15 0)
(0 -2.63141e-15 0)
(0 -2.18156e-15 0)
(0 -5.21598e-16 0)
(0 1.30845e-15 0)
(0 -6.9589e-16 0)
(0 -2.54852e-15 0)
(0 -3.16531e-15 0)
(0 -4.17237e-15 0)
(0 -3.49034e-15 0)
(0 -2.50847e-15 0)
(0 -1.1e-15 0)
(0 -2.06155e-15 0)
(0 -2.13654e-15 0)
(0 -2.26525e-15 0)
(0 -3.34601e-15 0)
(0 -3.78867e-15 0)
(0 -3.67996e-15 0)
(0 -2.63566e-15 0)
(0 -4.71727e-16 0)
(0 -1.36163e-15 0)
(0 -1.36482e-15 0)
(0 -1.51779e-15 0)
(0 -2.82067e-15 0)
(0 -2.76662e-15 0)
(0 -4.29845e-15 0)
(0 -4.65173e-15 0)
(0 -4.4858e-15 0)
(0 -3.02699e-15 0)
(0 -9.91983e-16 0)
(0 -7.69492e-16 0)
(0 -7.22322e-17 0)
(0 3.08146e-16 0)
(0 9.50128e-16 0)
(0 5.16568e-16 0)
(0 -7.11768e-16 0)
(0 -1.38068e-15 0)
(0 -2.45717e-15 0)
(0 -3.08014e-15 0)
(0 -3.16889e-15 0)
(0 -3.40975e-15 0)
(0 -3.04544e-15 0)
(0 -1.98612e-15 0)
(0 -2.15793e-15 0)
(0 -9.36987e-16 0)
(0 -5.14911e-16 0)
(0 -2.23025e-16 0)
(0 -4.70845e-16 0)
(0 -9.84638e-17 0)
(0 5.00397e-16 0)
(0 8.92857e-16 0)
(0 2.96264e-16 0)
(0 -4.03487e-16 0)
(0 -1.29963e-15 0)
(0 -1.10734e-15 0)
(0 -4.53222e-16 0)
(0 -2.14092e-15 0)
(0 -2.76626e-15 0)
(0 -2.84212e-15 0)
(0 -2.6211e-15 0)
(0 -1.43973e-15 0)
(0 -3.33271e-15 0)
(0 -3.859e-15 0)
(0 -3.79626e-15 0)
(0 -2.8555e-15 0)
(0 -8.31622e-16 0)
(0 -2.11675e-15 0)
(0 -9.92379e-16 0)
(0 -1.67234e-15 0)
(0 -2.41396e-15 0)
(0 -2.20873e-15 0)
(0 -2.12344e-15 0)
(0 -2.76613e-15 0)
(0 -3.25919e-15 0)
(0 -2.10963e-15 0)
(0 -1.07002e-15 0)
(0 -1.27777e-16 0)
(0 2.14802e-16 0)
(0 -4.46951e-16 0)
(0 5.8148e-16 0)
(0 1.80289e-15 0)
(0 4.95445e-16 0)
(0 1.29732e-15 0)
(0 1.85795e-15 0)
(0 3.40899e-16 0)
(0 -3.66907e-16 0)
(0 -2.7833e-15 0)
(0 -2.90841e-15 0)
(0 -1.62584e-15 0)
(0 -1.01197e-15 0)
(0 2.48469e-16 0)
(0 -6.99045e-16 0)
(0 -6.77786e-16 0)
(0 -4.09449e-16 0)
(0 6.29893e-17 0)
(0 4.08285e-16 0)
(0 -5.91347e-16 0)
(0 -6.37485e-16 0)
(0 -8.0591e-16 0)
(0 -5.9786e-16 0)
(0 -9.22833e-16 0)
(0 2.85296e-16 0)
(0 9.46753e-16 0)
(0 8.68941e-16 0)
(0 1.64393e-15 0)
(0 2.40622e-15 0)
(0 1.70825e-16 0)
(0 -9.33987e-16 0)
(0 -3.66044e-16 0)
(0 -4.83464e-16 0)
(0 1.61266e-16 0)
(0 -1.05227e-15 0)
(0 -2.16258e-15 0)
(0 -1.63229e-15 0)
(0 5.5079e-16 0)
(0 8.67904e-16 0)
(0 -2.24595e-16 0)
(0 -1.06365e-15 0)
(0 -1.32448e-15 0)
(0 -2.03183e-15 0)
(0 -1.35941e-15 0)
(0 -1.7427e-15 0)
(0 -2.00757e-15 0)
(0 -2.06598e-15 0)
(0 -1.73785e-15 0)
(0 -1.0017e-15 0)
(0 1.66783e-16 0)
(0 9.72006e-16 0)
(0 1.56651e-15 0)
(0 3.07312e-15 0)
(0 2.99995e-15 0)
(0 2.22016e-15 0)
(0 9.15475e-16 0)
(0 1.55719e-15 0)
(0 9.73772e-16 0)
(0 3.68277e-16 0)
(0 -1.04627e-15 0)
(0 -3.06393e-15 0)
(0 -3.52431e-15 0)
(0 -2.98534e-15 0)
(0 -1.09289e-15 0)
(0 -1.45465e-15 0)
(0 -3.55439e-16 0)
(0 -3.18416e-16 0)
(0 -1.0235e-15 0)
(0 -1.38944e-15 0)
(0 -2.48946e-15 0)
(0 -2.41465e-15 0)
(0 -4.07497e-15 0)
(0 -3.73251e-15 0)
(0 -3.05935e-15 0)
(0 -1.94815e-15 0)
(0 -3.49238e-15 0)
(0 -8.82196e-05 0)
(0 -0.000210326 0)
(0 -0.000280055 0)
(0 -0.000304127 0)
(0 -0.000293033 0)
(0 -0.000258856 0)
(0 -0.000212995 0)
(0 -0.000164571 0)
(0 -0.000119776 0)
(0 -8.19988e-05 0)
(0 -5.24153e-05 0)
(0 -3.07207e-05 0)
(0 -1.58003e-05 0)
(0 -6.23329e-06 0)
(0 -6.15482e-07 0)
(0 2.26963e-06 0)
(0 3.38733e-06 0)
(0 3.45267e-06 0)
(0 2.96389e-06 0)
(0 2.24731e-06 0)
(0 1.50149e-06 0)
(0 8.35242e-07 0)
(0 2.97706e-07 0)
(0 -9.92827e-08 0)
(0 -3.65294e-07 0)
(0 -5.20544e-07 0)
(0 -5.88968e-07 0)
(0 -5.94052e-07 0)
(0 -5.56568e-07 0)
(0 -4.93583e-07 0)
(0 -4.18259e-07 0)
(0 -3.4013e-07 0)
(0 -2.65615e-07 0)
(0 -1.98615e-07 0)
(0 -1.41116e-07 0)
(0 -9.37212e-08 0)
(0 -5.61044e-08 0)
(0 -2.73702e-08 0)
(0 -6.32582e-09 0)
(0 8.32419e-09 0)
(0 1.78476e-08 0)
(0 2.34045e-08 0)
(0 2.60046e-08 0)
(0 2.64923e-08 0)
(0 2.55485e-08 0)
(0 2.37042e-08 0)
(0 2.13597e-08 0)
(0 1.8805e-08 0)
(0 1.62418e-08 0)
(0 1.38018e-08 0)
(0 1.15642e-08 0)
(0 9.56959e-09 0)
(0 7.83118e-09 0)
(0 6.34407e-09 0)
(0 5.09193e-09 0)
(0 4.05203e-09 0)
(0 3.19886e-09 0)
(0 2.50647e-09 0)
(0 1.95011e-09 0)
(0 1.50711e-09 0)
(0 1.15732e-09 0)
(0 8.83306e-10 0)
(0 6.70222e-10 0)
(0 5.05674e-10 0)
(0 3.79446e-10 0)
(0 2.83225e-10 0)
(0 2.1032e-10 0)
(0 1.55403e-10 0)
(0 1.14266e-10 0)
(0 8.36192e-11 0)