/*--------------------------------*- C++ -*----------------------------------*\
| =========                 |                                                 |
| \\      /  F ield         | OpenFOAM: The Open Source CFD Toolbox           |
|  \\    /   O peration     | Version:  4.1                                   |
|   \\  /    A nd           | Web:      www.OpenFOAM.org                      |
|    \\/     M anipulation  |                                                 |
\*---------------------------------------------------------------------------*/
FoamFile
{
    version     2.0;
    format      ascii;
    class       volVectorField;
    location    "0.5";
    object      U;
}
// * * * * * * * * * * * * * * * * * * * * * * * * * * * * * * * * * * * * * //

dimensions      [0 1 -1 0 0 0 0];

internalField   nonuniform List<vector> 
20400
(
(0 -9.25912e-06 0)
(0 -2.11113e-05 0)
(0 -2.84149e-05 0)
(0 -3.12326e-05 0)
(0 -3.05261e-05 0)
(0 -2.74125e-05 0)
(0 -2.29852e-05 0)
(0 -1.8149e-05 0)
(0 -1.35444e-05 0)
(0 -9.547e-06 0)
(0 -6.31467e-06 0)
(0 -3.85271e-06 0)
(0 -2.07744e-06 0)
(0 -8.65728e-07 0)
(0 -8.82231e-08 0)
(0 3.72037e-07 0)
(0 6.11578e-07 0)
(0 7.05082e-07 0)
(0 7.07485e-07 0)
(0 6.57484e-07 0)
(0 5.81228e-07 0)
(0 4.95612e-07 0)
(0 4.10953e-07 0)
(0 3.33048e-07 0)
(0 2.64696e-07 0)
(0 2.06781e-07 0)
(0 1.59039e-07 0)
(0 1.20565e-07 0)
(0 9.01616e-08 0)
(0 6.65513e-08 0)
(0 4.85054e-08 0)
(0 3.49154e-08 0)
(0 2.48238e-08 0)
(0 1.74305e-08 0)
(0 1.20849e-08 0)
(0 8.26984e-09 0)
(0 5.58218e-09 0)
(0 3.7135e-09 0)
(0 2.43167e-09 0)
(0 1.56467e-09 0)
(0 9.8691e-10 0)
(0 6.08036e-10 0)
(0 3.63957e-10 0)
(0 2.09856e-10 0)
(0 1.14835e-10 0)
(0 5.79184e-11 0)
(0 2.50791e-11 0)
(0 7.09447e-12 0)
(0 -1.98677e-12 0)
(0 -5.92961e-12 0)
(0 -7.05826e-12 0)
(0 -6.76468e-12 0)
(0 -5.85331e-12 0)
(0 -4.76348e-12 0)
(0 -3.71823e-12 0)
(0 -2.81392e-12 0)
(0 -2.07864e-12 0)
(0 -1.50491e-12 0)
(0 -1.07098e-12 0)
(0 -7.51727e-13 0)
(0 -5.21081e-13 0)
(0 -3.56619e-13 0)
(0 -2.4144e-13 0)
(0 -1.61906e-13 0)
(0 -1.08204e-13 0)
(0 -7.12185e-14 0)
(0 -4.65893e-14 0)
(0 -2.95843e-14 0)
(0 -1.87555e-14 0)
(0 -1.19357e-14 0)
(0 -7.86893e-15 0)
(0 -4.9652e-15 0)
(0 -3.5811e-15 0)
(0 -3.14219e-15 0)
(0 -1.77458e-15 0)
(0 -4.41984e-16 0)
(0 -5.15513e-16 0)
(0 1.93578e-16 0)
(0 1.56407e-16 0)
(0 6.51656e-16 0)
(0 -1.38205e-17 0)
(0 -3.34443e-16 0)
(0 -2.11588e-16 0)
(0 -1.00545e-16 0)
(0 -5.90739e-17 0)
(0 -1.52031e-16 0)
(0 -6.49287e-16 0)
(0 -1.06314e-15 0)
(0 -5.47505e-17 0)
(0 -1.25152e-16 0)
(0 -7.2194e-16 0)
(0 -5.03941e-16 0)
(0 -8.52773e-16 0)
(0 -6.38911e-16 0)
(0 -5.55396e-16 0)
(0 -1.17187e-15 0)
(0 -1.56603e-15 0)
(0 -9.08516e-16 0)
(0 -6.46978e-16 0)
(0 -6.43914e-16 0)
(0 -6.47124e-16 0)
(0 -1.35158e-15 0)
(0 -6.04128e-16 0)
(0 -3.59296e-16 0)
(0 -9.06773e-17 0)
(0 -1.93478e-16 0)
(0 2.56874e-16 0)
(0 5.41058e-16 0)
(0 1.90976e-16 0)
(0 -3.34104e-16 0)
(0 1.1044e-17 0)
(0 -8.50986e-17 0)
(0 -6.2609e-16 0)
(0 -4.16464e-16 0)
(0 -1.03779e-15 0)
(0 -9.43047e-16 0)
(0 -4.11515e-16 0)
(0 -7.52361e-16 0)
(0 -6.81484e-16 0)
(0 -6.79623e-16 0)
(0 -9.96429e-16 0)
(0 -1.94158e-15 0)
(0 -1.14774e-15 0)
(0 -9.94004e-16 0)
(0 -8.16413e-16 0)
(0 -6.89805e-16 0)
(0 -1.03789e-15 0)
(0 -9.55912e-16 0)
(0 -1.01008e-16 0)
(0 6.50171e-16 0)
(0 -2.24675e-16 0)
(0 -1.10988e-16 0)
(0 -4.01179e-16 0)
(0 -1.06195e-15 0)
(0 -3.93096e-16 0)
(0 -5.05349e-16 0)
(0 -7.11913e-16 0)
(0 -8.52435e-16 0)
(0 -6.49793e-16 0)
(0 -2.45298e-16 0)
(0 1.90059e-16 0)
(0 6.32337e-17 0)
(0 -4.89505e-16 0)
(0 -1.91881e-16 0)
(0 -6.23373e-16 0)
(0 -6.10135e-16 0)
(0 -1.01861e-16 0)
(0 2.08761e-16 0)
(0 2.33713e-16 0)
(0 -5.59233e-16 0)
(0 -5.86304e-16 0)
(0 -1.71675e-16 0)
(0 -4.68704e-16 0)
(0 1.9647e-16 0)
(0 -1.9915e-16 0)
(0 -3.81188e-16 0)
(0 -3.10637e-16 0)
(0 -2.415e-16 0)
(0 1.64147e-17 0)
(0 -4.69073e-16 0)
(0 4.00636e-16 0)
(0 6.76424e-16 0)
(0 1.24293e-15 0)
(0 6.94382e-16 0)
(0 2.04392e-16 0)
(0 -4.84624e-16 0)
(0 -9.2438e-16 0)
(0 3.08453e-16 0)
(0 3.04725e-16 0)
(0 -2.00132e-16 0)
(0 5.66906e-16 0)
(0 6.14198e-16 0)
(0 1.68485e-16 0)
(0 -3.53733e-16 0)
(0 -3.35496e-16 0)
(0 -2.24937e-16 0)
(0 4.84298e-16 0)
(0 5.28945e-16 0)
(0 1.09288e-15 0)
(0 5.85754e-16 0)
(0 7.02073e-16 0)
(0 6.41645e-16 0)
(0 8.06864e-16 0)
(0 5.39689e-16 0)
(0 2.53687e-16 0)
(0 2.77448e-16 0)
(0 8.24089e-16 0)
(0 5.66409e-16 0)
(0 6.87773e-16 0)
(0 5.33406e-16 0)
(0 5.65345e-16 0)
(0 6.49827e-16 0)
(0 6.18962e-16 0)
(0 8.01663e-16 0)
(0 1.50329e-16 0)
(0 9.73064e-17 0)
(0 6.11122e-16 0)
(0 3.66212e-16 0)
(0 1.25286e-16 0)
(0 1.41477e-16 0)
(0 3.80969e-16 0)
(0 1.02027e-16 0)
(0 -1.66959e-16 0)
(0 -8.7021e-17 0)
(0 -9.65785e-17 0)
(0 3.09933e-16 0)
(0 9.05233e-16 0)
(0 7.7429e-16 0)
(0 5.94656e-16 0)
(0 2.57495e-17 0)
(0 8.82033e-17 0)
(0 7.73819e-16 0)
(0 -1.8225e-16 0)
(0 -1.53712e-16 0)
(0 -6.24111e-16 0)
(0 -2.82105e-16 0)
(0 -2.93027e-16 0)
(0 2.82382e-16 0)
(0 8.78529e-16 0)
(0 1.03883e-15 0)
(0 7.53188e-16 0)
(0 2.15762e-17 0)
(0 -6.23496e-18 0)
(0 7.72775e-16 0)
(0 1.25068e-16 0)
(0 8.67157e-16 0)
(0 1.99365e-16 0)
(0 -8.41803e-17 0)
(0 -1.50643e-17 0)
(0 -5.85038e-16 0)
(0 -5.71207e-16 0)
(0 -3.54134e-16 0)
(0 -4.14491e-16 0)
(0 -4.52437e-16 0)
(0 -7.24408e-16 0)
(0 -6.75832e-16 0)
(0 -3.78654e-16 0)
(0 -7.29435e-16 0)
(0 -4.14349e-16 0)
(0 -2.55168e-16 0)
(0 -5.19494e-17 0)
(0 -1.58223e-16 0)
(0 -2.05849e-16 0)
(0 -1.89103e-16 0)
(0 -4.4411e-16 0)
(0 -7.93221e-16 0)
(0 -7.45332e-16 0)
(0 -6.42513e-16 0)
(0 -1.29836e-16 0)
(0 -2.27831e-16 0)
(0 1.05305e-16 0)
(0 3.23917e-16 0)
(0 2.02074e-16 0)
(0 -1.63781e-17 0)
(0 -2.31432e-16 0)
(0 2.07112e-16 0)
(0 4.4787e-16 0)
(0 -8.67933e-17 0)
(0 1.71933e-16 0)
(0 1.2202e-16 0)
(0 -1.27029e-16 0)
(0 2.16696e-16 0)
(0 -2.49245e-16 0)
(0 -9.99025e-17 0)
(0 -7.69002e-16 0)
(0 -5.10376e-16 0)
(0 -1.50222e-17 0)
(0 -2.13913e-17 0)
(0 -1.3277e-16 0)
(0 -2.23824e-16 0)
(0 -1.31146e-16 0)
(0 5.01175e-16 0)
(0 1.48352e-16 0)
(0 6.45e-16 0)
(0 2.55125e-16 0)
(0 -3.08625e-16 0)
(0 -6.68229e-17 0)
(0 -2.39628e-16 0)
(0 -1.00602e-16 0)
(0 -2.08802e-16 0)
(0 -4.83976e-17 0)
(0 -3.33274e-18 0)
(0 4.49681e-16 0)
(0 3.1853e-16 0)
(0 6.62031e-16 0)
(0 6.73722e-16 0)
(0 2.33159e-16 0)
(0 2.84262e-16 0)
(0 7.71965e-16 0)
(0 2.5944e-16 0)
(0 2.17776e-16 0)
(0 -1.31664e-16 0)
(0 4.28797e-16 0)
(0 1.103e-16 0)
(0 7.78472e-16 0)
(0 6.34822e-16 0)
(0 8.54188e-16 0)
(0 -2.913e-17 0)
(0 2.80586e-16 0)
(0 -3.92988e-16 0)
(0 -9.85178e-18 0)
(0 -4.59449e-16 0)
(0 4.75377e-16 0)
(0 -1.6403e-17 0)
(0 7.65989e-16 0)
(0 1.14698e-15 0)
(0 1.00158e-15 0)
(0 9.50952e-17 0)
(0 2.76932e-16 0)
(0 1.08877e-16 0)
(0 -1.04649e-16 0)
(0 3.5923e-16 0)
(0 -2.19648e-16 0)
(0 -2.01794e-16 0)
(0 -6.23832e-16 0)
(0 -5.40599e-16 0)
(0 -1.55583e-16 0)
(0 1.48023e-17 0)
(0 1.04016e-15 0)
(0 8.67057e-16 0)
(0 6.5096e-16 0)
(0 5.56004e-16 0)
(0 -1.14296e-16 0)
(0 -1.00341e-16 0)
(0 -1.13108e-16 0)
(0 -4.47451e-16 0)
(0 -2.22935e-16 0)
(0 2.78962e-17 0)
(0 3.32588e-16 0)
(0 4.72301e-16 0)
(0 3.20526e-16 0)
(0 -3.20434e-16 0)
(0 -4.53056e-16 0)
(0 -6.50487e-16 0)
(0 -1.20939e-16 0)
(0 1.43791e-16 0)
(0 -9.27433e-17 0)
(0 -4.5959e-16 0)
(0 -1.18108e-16 0)
(0 -1.9969e-16 0)
(0 1.65471e-16 0)
(0 4.31023e-16 0)
(0 -2.26363e-16 0)
(0 -1.49345e-16 0)
(0 5.00052e-16 0)
(0 1.56815e-16 0)
(0 -2.07395e-16 0)
(0 -2.07702e-16 0)
(0 -4.84528e-16 0)
(0 -1.27007e-15 0)
(0 -8.57702e-16 0)
(0 -1.18171e-15 0)
(0 -1.18069e-15 0)
(0 -1.00422e-15 0)
(0 -7.34834e-16 0)
(0 -5.73594e-16 0)
(0 -7.6279e-16 0)
(0 -8.91191e-16 0)
(0 -1.44963e-15 0)
(0 -8.60287e-16 0)
(0 -1.1129e-15 0)
(0 -1.20376e-15 0)
(0 -1.17631e-15 0)
(0 -8.54969e-16 0)
(0 -1.04374e-15 0)
(0 -9.84796e-16 0)
(0 -1.14479e-15 0)
(0 -1.33177e-15 0)
(0 -1.60486e-15 0)
(0 -1.57074e-15 0)
(0 1.54554e-16 0)
(0 -2.09292e-16 0)
(0 -6.11732e-16 0)
(0 -3.82507e-16 0)
(0 -1.01513e-15 0)
(0 -5.95069e-16 0)
(0 -1.21186e-15 0)
(0 -1.30729e-15 0)
(0 -9.23053e-16 0)
(0 -1.24577e-15 0)
(0 -9.66576e-16 0)
(0 -3.11451e-16 0)
(0 -7.06936e-16 0)
(0 -1.02807e-15 0)
(0 -9.51071e-16 0)
(0 -1.49067e-15 0)
(0 -1.6222e-15 0)
(0 -1.84221e-15 0)
(0 -1.39679e-15 0)
(0 -7.57561e-16 0)
(0 -2.15016e-16 0)
(0 -2.89041e-16 0)
(0 1.61516e-16 0)
(0 -3.0358e-16 0)
(0 -1.30562e-15 0)
(0 -1.11138e-15 0)
(0 -1.58451e-15 0)
(0 -1.48091e-15 0)
(0 -8.27784e-16 0)
(0 -2.87817e-16 0)
(0 -3.54319e-16 0)
(0 -4.44067e-16 0)
(0 -4.8753e-16 0)
(0 -8.18184e-16 0)
(0 -9.41109e-16 0)
(0 -8.2251e-16 0)
(0 -3.3827e-16 0)
(0 -1.7553e-16 0)
(0 8.9488e-17 0)
(0 -7.0104e-16 0)
(0 -1.81373e-18 0)
(0 -1.45961e-16 0)
(0 -2.68205e-16 0)
(0 -2.41205e-16 0)
(0 -1.60856e-16 0)
(0 -1.172e-16 0)
(0 -1.65185e-16 0)
(0 -2.2715e-16 0)
(0 -2.42111e-17 0)
(0 2.97557e-18 0)
(0 9.90304e-17 0)
(0 -1.93038e-16 0)
(0 4.46856e-16 0)
(0 4.03415e-16 0)
(0 7.47987e-16 0)
(0 2.33838e-16 0)
(0 2.07523e-16 0)
(0 -8.41451e-16 0)
(0 -5.59071e-16 0)
(0 -3.76162e-16 0)
(0 -4.27805e-16 0)
(0 -1.70277e-16 0)
(0 8.63407e-17 0)
(0 2.37001e-17 0)
(0 -4.11738e-16 0)
(0 1.02901e-16 0)
(0 -1.94105e-16 0)
(0 -5.94569e-16 0)
(0 -1.85551e-16 0)
(0 -2.07608e-16 0)
(0 -5.17092e-16 0)
(0 -4.64938e-16 0)
(0 -8.49296e-16 0)
(0 -7.46114e-16 0)
(0 -3.78228e-16 0)
(0 -1.04301e-16 0)
(0 -1.17619e-16 0)
(0 -8.13981e-16 0)
(0 -5.79384e-16 0)
(0 -5.27763e-16 0)
(0 -5.96007e-16 0)
(0 -1.21191e-15 0)
(0 -7.82807e-16 0)
(0 -1.09794e-15 0)
(0 -7.20061e-16 0)
(0 -6.38909e-16 0)
(0 -2.50532e-16 0)
(0 -4.02832e-16 0)
(0 2.39733e-18 0)
(0 1.05002e-16 0)
(0 2.53451e-16 0)
(0 2.45056e-16 0)
(0 9.91093e-17 0)
(0 -1.55488e-16 0)
(0 -6.52273e-16 0)
(0 -4.58547e-16 0)
(0 -2.77416e-16 0)
(0 -3.03894e-16 0)
(0 -5.04365e-16 0)
(0 8.86376e-17 0)
(0 -8.86744e-16 0)
(0 -5.99293e-16 0)
(0 -7.67414e-16 0)
(0 -1.11042e-15 0)
(0 -5.17942e-16 0)
(0 -4.96914e-16 0)
(0 -2.69411e-16 0)
(0 -2.26608e-17 0)
(0 -2.26876e-16 0)
(0 -4.992e-16 0)
(0 -6.55261e-16 0)
(0 -6.17467e-16 0)
(0 -3.41046e-16 0)
(0 4.49623e-16 0)
(0 1.50035e-16 0)
(0 -4.71696e-16 0)
(0 -4.68095e-16 0)
(0 -5.37305e-16 0)
(0 -5.52641e-16 0)
(0 -7.7078e-16 0)
(0 -6.10367e-16 0)
(0 -4.00277e-16 0)
(0 -7.5995e-16 0)
(0 -6.31335e-16 0)
(0 3.08579e-16 0)
(0 -2.27589e-16 0)
(0 8.78524e-18 0)
(0 -1.95154e-16 0)
(0 -3.73733e-16 0)
(0 -6.48834e-17 0)
(0 -2.67315e-05 0)
(0 -6.39425e-05 0)
(0 -8.58282e-05 0)
(0 -9.41644e-05 0)
(0 -9.18643e-05 0)
(0 -8.23518e-05 0)
(0 -6.89376e-05 0)
(0 -5.43458e-05 0)
(0 -4.0494e-05 0)
(0 -2.84976e-05 0)
(0 -1.88162e-05 0)
(0 -1.1455e-05 0)
(0 -6.15506e-06 0)
(0 -2.54298e-06 0)
(0 -2.28971e-07 0)
(0 1.13801e-06 0)
(0 1.84693e-06 0)
(0 2.12096e-06 0)
(0 2.12405e-06 0)
(0 1.9716e-06 0)
(0 1.7415e-06 0)
(0 1.48405e-06 0)
(0 1.22993e-06 0)
(0 9.96338e-07 0)
(0 7.91547e-07 0)
(0 6.18134e-07 0)
(0 4.75251e-07 0)
(0 3.60159e-07 0)
(0 2.69248e-07 0)
(0 1.98675e-07 0)
(0 1.44755e-07 0)
(0 1.04163e-07 0)
(0 7.40308e-08 0)
(0 5.19636e-08 0)
(0 3.60139e-08 0)
(0 2.46349e-08 0)
(0 1.66215e-08 0)
(0 1.10522e-08 0)
(0 7.23343e-09 0)
(0 4.65162e-09 0)
(0 2.93196e-09 0)
(0 1.80486e-09 0)
(0 1.0792e-09 0)
(0 6.21357e-10 0)
(0 3.3929e-10 0)
(0 1.70514e-10 0)
(0 7.32752e-11 0)
(0 2.01362e-11 0)
(0 -6.6026e-12 0)
(0 -1.81249e-11 0)
(0 -2.13311e-11 0)
(0 -2.03507e-11 0)
(0 -1.75635e-11 0)
(0 -1.42698e-11 0)
(0 -1.11261e-11 0)
(0 -8.41222e-12 0)
(0 -6.20929e-12 0)
(0 -4.49281e-12 0)
(0 -3.19678e-12 0)
(0 -2.24281e-12 0)
(0 -1.5535e-12 0)
(0 -1.06392e-12 0)
(0 -7.20788e-13 0)
(0 -4.83545e-13 0)
(0 -3.21991e-13 0)
(0 -2.13052e-13 0)
(0 -1.39014e-13 0)
(0 -8.90141e-14 0)
(0 -5.73323e-14 0)
(0 -3.61596e-14 0)
(0 -2.28094e-14 0)
(0 -1.51102e-14 0)
(0 -1.08495e-14 0)
(0 -7.77624e-15 0)
(0 -4.73864e-15 0)
(0 -2.614e-15 0)
(0 -2.61738e-15 0)
(0 -1.05054e-15 0)
(0 3.68551e-16 0)
(0 3.16268e-16 0)
(0 -1.45904e-16 0)
(0 -1.10057e-16 0)
(0 -6.45045e-16 0)
(0 -5.45255e-16 0)
(0 -5.87178e-16 0)
(0 -8.88454e-17 0)
(0 -6.2897e-16 0)
(0 -1.06026e-15 0)
(0 -9.77596e-16 0)
(0 -7.29487e-16 0)
(0 -1.77338e-15 0)
(0 -1.16916e-15 0)
(0 -1.42349e-15 0)
(0 -2.28168e-15 0)
(0 -2.45262e-15 0)
(0 -3.1132e-15 0)
(0 -3.22786e-15 0)
(0 -1.96237e-15 0)
(0 -1.77039e-15 0)
(0 -1.37222e-15 0)
(0 -1.70542e-15 0)
(0 -1.80822e-15 0)
(0 -1.67147e-15 0)
(0 -1.48136e-15 0)
(0 -1.09287e-15 0)
(0 -9.53848e-16 0)
(0 -7.17056e-16 0)
(0 -8.20382e-16 0)
(0 2.35058e-17 0)
(0 -2.56699e-16 0)
(0 -4.03531e-16 0)
(0 2.43165e-16 0)
(0 -8.11659e-16 0)
(0 -1.14994e-15 0)
(0 -2.41838e-15 0)
(0 -1.61595e-15 0)
(0 -1.49905e-15 0)
(0 -2.26786e-15 0)
(0 -1.69539e-15 0)
(0 -2.29586e-15 0)
(0 -3.43646e-15 0)
(0 -3.73642e-15 0)
(0 -3.44951e-15 0)
(0 -3.62837e-15 0)
(0 -2.52532e-15 0)
(0 -2.7179e-15 0)
(0 -2.56238e-15 0)
(0 -1.38015e-15 0)
(0 -7.95843e-17 0)
(0 -7.34067e-17 0)
(0 -5.39377e-16 0)
(0 -1.35635e-15 0)
(0 -1.11655e-15 0)
(0 -2.45336e-15 0)
(0 -1.46768e-15 0)
(0 -2.12638e-15 0)
(0 -2.16751e-15 0)
(0 -1.64002e-15 0)
(0 -1.80154e-15 0)
(0 -1.90545e-15 0)
(0 -3.61147e-16 0)
(0 -3.8761e-16 0)
(0 -1.4385e-15 0)
(0 -1.176e-15 0)
(0 -2.37485e-15 0)
(0 -1.65569e-15 0)
(0 -3.57789e-16 0)
(0 -6.40772e-16 0)
(0 1.36779e-16 0)
(0 -1.71218e-15 0)
(0 -1.46954e-15 0)
(0 -6.89131e-16 0)
(0 -1.44763e-15 0)
(0 -1.65521e-16 0)
(0 -1.62171e-15 0)
(0 -1.02931e-15 0)
(0 -8.50847e-16 0)
(0 -8.58221e-16 0)
(0 3.29987e-16 0)
(0 -8.26985e-16 0)
(0 -1.43977e-16 0)
(0 2.15144e-15 0)
(0 2.71924e-15 0)
(0 1.66853e-15 0)
(0 4.26758e-17 0)
(0 -1.45026e-15 0)
(0 -1.3429e-16 0)
(0 6.69183e-16 0)
(0 6.8342e-16 0)
(0 -3.96887e-16 0)
(0 2.62614e-16 0)
(0 1.01539e-15 0)
(0 4.8579e-16 0)
(0 -2.03509e-16 0)
(0 -1.14006e-15 0)
(0 -4.74906e-16 0)
(0 2.53602e-15 0)
(0 1.73185e-15 0)
(0 2.3591e-15 0)
(0 1.49064e-15 0)
(0 1.07519e-15 0)
(0 2.98451e-15 0)
(0 2.39995e-15 0)
(0 1.9486e-15 0)
(0 6.88195e-16 0)
(0 1.84017e-16 0)
(0 1.71264e-15 0)
(0 2.06232e-15 0)
(0 1.99841e-15 0)
(0 1.61359e-15 0)
(0 1.39518e-15 0)
(0 1.41507e-15 0)
(0 8.34989e-16 0)
(0 6.78013e-16 0)
(0 2.2551e-16 0)
(0 6.28331e-16 0)
(0 1.8416e-15 0)
(0 7.59573e-16 0)
(0 1.02873e-15 0)
(0 2.87351e-16 0)
(0 1.00395e-15 0)
(0 3.06415e-16 0)
(0 -4.79271e-16 0)
(0 -2.61464e-16 0)
(0 -4.33885e-16 0)
(0 1.31741e-15 0)
(0 1.80989e-15 0)
(0 1.54401e-15 0)
(0 1.40435e-15 0)
(0 2.77477e-16 0)
(0 5.85086e-16 0)
(0 -8.71692e-18 0)
(0 1.78919e-16 0)
(0 3.64998e-16 0)
(0 -1.28486e-15 0)
(0 -1.01246e-15 0)
(0 -3.54832e-16 0)
(0 7.86297e-16 0)
(0 2.58765e-15 0)
(0 2.25946e-15 0)
(0 2.06754e-15 0)
(0 1.66821e-15 0)
(0 5.72506e-16 0)
(0 1.84485e-15 0)
(0 1.95546e-15 0)
(0 1.47633e-15 0)
(0 1.29496e-15 0)
(0 3.58076e-16 0)
(0 -1.27556e-16 0)
(0 -6.19768e-16 0)
(0 -1.53253e-15 0)
(0 -6.78668e-16 0)
(0 1.42546e-16 0)
(0 -3.74891e-17 0)
(0 -9.69997e-16 0)
(0 -2.09612e-15 0)
(0 -9.86271e-16 0)
(0 -6.35678e-16 0)
(0 -4.37015e-17 0)
(0 4.33476e-16 0)
(0 1.61343e-16 0)
(0 -6.15858e-17 0)
(0 -1.65506e-16 0)
(0 -4.04797e-16 0)
(0 -1.4854e-15 0)
(0 -7.30238e-16 0)
(0 -1.25225e-15 0)
(0 -6.05094e-16 0)
(0 -2.02242e-16 0)
(0 -6.58949e-16 0)
(0 -6.31196e-16 0)
(0 4.68336e-17 0)
(0 -5.21049e-16 0)
(0 3.9349e-16 0)
(0 2.23895e-16 0)
(0 6.6599e-16 0)
(0 5.81611e-16 0)
(0 3.30743e-16 0)
(0 1.02712e-15 0)
(0 7.77976e-16 0)
(0 -1.00513e-15 0)
(0 -5.14591e-16 0)
(0 -4.32102e-16 0)
(0 1.35273e-16 0)
(0 -1.57916e-15 0)
(0 -9.50554e-16 0)
(0 -1.66985e-16 0)
(0 5.54735e-16 0)
(0 -3.05523e-16 0)
(0 -6.47372e-16 0)
(0 -4.68228e-16 0)
(0 6.52852e-16 0)
(0 1.00737e-15 0)
(0 1.24174e-15 0)
(0 5.17858e-16 0)
(0 -4.25109e-16 0)
(0 -1.70584e-16 0)
(0 -4.88275e-16 0)
(0 -1.61435e-16 0)
(0 -3.89941e-16 0)
(0 1.01964e-15 0)
(0 4.93349e-16 0)
(0 6.06987e-16 0)
(0 6.36172e-16 0)
(0 1.1384e-15 0)
(0 1.95743e-15 0)
(0 1.07386e-15 0)
(0 8.50246e-16 0)
(0 1.64675e-15 0)
(0 4.04843e-16 0)
(0 6.0462e-16 0)
(0 6.78389e-16 0)
(0 9.78501e-16 0)
(0 4.30633e-16 0)
(0 3.30774e-16 0)
(0 -6.73427e-16 0)
(0 5.60699e-16 0)
(0 2.23652e-16 0)
(0 6.65805e-16 0)
(0 -1.76591e-15 0)
(0 -7.71549e-16 0)
(0 -6.73885e-16 0)
(0 2.37309e-16 0)
(0 6.89284e-16 0)
(0 1.57768e-15 0)
(0 1.89951e-15 0)
(0 5.87522e-16 0)
(0 9.67019e-16 0)
(0 2.82176e-16 0)
(0 -7.87622e-16 0)
(0 -2.37697e-16 0)
(0 1.76833e-16 0)
(0 -6.42659e-16 0)
(0 -4.14062e-16 0)
(0 -6.04009e-16 0)
(0 -2.21836e-16 0)
(0 -1.16424e-15 0)
(0 9.39513e-16 0)
(0 1.28823e-15 0)
(0 1.56961e-15 0)
(0 2.36339e-15 0)
(0 7.72058e-16 0)
(0 3.04622e-16 0)
(0 1.1808e-16 0)
(0 -1.3646e-15 0)
(0 -1.2531e-15 0)
(0 -9.08698e-16 0)
(0 -2.91998e-17 0)
(0 8.37366e-16 0)
(0 1.21933e-15 0)
(0 1.46397e-15 0)
(0 2.20522e-16 0)
(0 -9.55865e-16 0)
(0 -1.23443e-15 0)
(0 2.94466e-17 0)
(0 2.34263e-16 0)
(0 -2.43755e-16 0)
(0 -9.92887e-17 0)
(0 -4.98914e-16 0)
(0 -1.32696e-15 0)
(0 -6.0336e-16 0)
(0 -1.02732e-15 0)
(0 -1.94844e-16 0)
(0 -7.43723e-16 0)
(0 -1.04779e-16 0)
(0 1.68441e-16 0)
(0 -6.01588e-16 0)
(0 2.60885e-17 0)
(0 -8.87527e-16 0)
(0 -2.96347e-15 0)
(0 -2.07141e-15 0)
(0 -3.20002e-15 0)
(0 -2.30282e-15 0)
(0 -2.74683e-15 0)
(0 -2.31538e-15 0)
(0 -1.63848e-15 0)
(0 -2.39875e-15 0)
(0 -2.52019e-15 0)
(0 -2.58774e-15 0)
(0 -2.41794e-15 0)
(0 -1.89923e-15 0)
(0 -1.96427e-15 0)
(0 -2.3653e-15 0)
(0 -2.64699e-15 0)
(0 -3.29892e-15 0)
(0 -3.29052e-15 0)
(0 -3.72565e-15 0)
(0 -2.89047e-15 0)
(0 -4.31118e-15 0)
(0 -2.76253e-15 0)
(0 -6.20748e-16 0)
(0 -1.34662e-15 0)
(0 -1.89502e-15 0)
(0 -2.58561e-15 0)
(0 -1.33653e-15 0)
(0 -1.71532e-15 0)
(0 -3.31394e-15 0)
(0 -2.25485e-15 0)
(0 -2.38405e-15 0)
(0 -1.79266e-15 0)
(0 -3.01614e-15 0)
(0 -2.35307e-15 0)
(0 -1.72716e-15 0)
(0 -1.91771e-15 0)
(0 -1.77305e-15 0)
(0 -3.56924e-15 0)
(0 -3.49699e-15 0)
(0 -3.00532e-15 0)
(0 -2.74116e-15 0)
(0 -1.38902e-15 0)
(0 -1.24759e-15 0)
(0 -2.38707e-15 0)
(0 -1.42383e-15 0)
(0 -1.65685e-15 0)
(0 -3.00938e-15 0)
(0 -3.77088e-15 0)
(0 -4.1661e-15 0)
(0 -3.84588e-15 0)
(0 -2.24406e-15 0)
(0 -1.03186e-15 0)
(0 -1.25795e-15 0)
(0 -1.41782e-15 0)
(0 -1.24515e-15 0)
(0 -2.33408e-15 0)
(0 -2.86793e-15 0)
(0 -1.91659e-15 0)
(0 -9.26959e-16 0)
(0 -5.80021e-16 0)
(0 1.52342e-16 0)
(0 -3.72256e-16 0)
(0 4.81629e-16 0)
(0 -1.99447e-16 0)
(0 -8.20866e-16 0)
(0 -6.8975e-16 0)
(0 7.22816e-17 0)
(0 -3.48059e-16 0)
(0 -4.99496e-16 0)
(0 -1.12666e-15 0)
(0 7.82635e-17 0)
(0 4.94081e-16 0)
(0 4.26789e-16 0)
(0 -1.07851e-16 0)
(0 9.33213e-16 0)
(0 5.95908e-16 0)
(0 9.06291e-16 0)
(0 5.54313e-16 0)
(0 4.1463e-16 0)
(0 -8.20804e-16 0)
(0 -1.10945e-15 0)
(0 -9.87269e-16 0)
(0 -9.02928e-16 0)
(0 -5.68353e-16 0)
(0 5.44663e-16 0)
(0 -2.84005e-16 0)
(0 -1.13933e-15 0)
(0 7.20385e-18 0)
(0 -5.44085e-16 0)
(0 -9.40083e-16 0)
(0 -2.16775e-16 0)
(0 -3.16234e-16 0)
(0 -1.10592e-15 0)
(0 -1.55683e-15 0)
(0 -1.99289e-15 0)
(0 -1.42866e-15 0)
(0 -9.76462e-16 0)
(0 -1.29824e-15 0)
(0 -1.31102e-15 0)
(0 -1.25119e-15 0)
(0 -1.9572e-15 0)
(0 -1.84524e-15 0)
(0 -1.69353e-15 0)
(0 -2.50522e-15 0)
(0 -3.21348e-15 0)
(0 -3.01904e-15 0)
(0 -1.9758e-15 0)
(0 -1.3678e-15 0)
(0 -8.63286e-16 0)
(0 -6.7221e-16 0)
(0 -5.48921e-17 0)
(0 5.57903e-16 0)
(0 4.75215e-16 0)
(0 2.4906e-16 0)
(0 5.1302e-16 0)
(0 -9.37902e-16 0)
(0 -2.35723e-15 0)
(0 -1.36065e-15 0)
(0 -8.14926e-16 0)
(0 -9.71064e-16 0)
(0 -6.17879e-16 0)
(0 -8.87397e-17 0)
(0 -2.05843e-15 0)
(0 -2.03029e-15 0)
(0 -1.69726e-15 0)
(0 -2.83582e-15 0)
(0 -2.05042e-15 0)
(0 -1.44503e-15 0)
(0 -8.5842e-16 0)
(0 -2.22682e-15 0)
(0 -2.35853e-16 0)
(0 -4.37911e-16 0)
(0 -1.9091e-15 0)
(0 -8.46513e-16 0)
(0 -9.44104e-16 0)
(0 8.67064e-17 0)
(0 7.11033e-16 0)
(0 -9.96354e-16 0)
(0 -1.32567e-15 0)
(0 -1.27045e-15 0)
(0 -1.15927e-15 0)
(0 -2.07986e-15 0)
(0 -2.33577e-15 0)
(0 -2.18093e-15 0)
(0 -1.52685e-15 0)
(0 -1.33547e-15 0)
(0 -1.44704e-16 0)
(0 -1.72264e-15 0)
(0 -1.30238e-15 0)
(0 -1.79458e-15 0)
(0 -1.32427e-15 0)
(0 -1.6246e-15 0)
(0 -4.47392e-05 0)
(0 -0.000107061 0)
(0 -0.00014352 0)
(0 -0.000157235 0)
(0 -0.000153169 0)
(0 -0.000137114 0)
(0 -0.000114632 0)
(0 -9.02687e-05 0)
(0 -6.72019e-05 0)
(0 -4.7263e-05 0)
(0 -3.11941e-05 0)
(0 -1.89871e-05 0)
(0 -1.02029e-05 0)
(0 -4.2171e-06 0)
(0 -3.81888e-07 0)
(0 1.88468e-06 0)
(0 3.06105e-06 0)
(0 3.51661e-06 0)
(0 3.52279e-06 0)
(0 3.27072e-06 0)
(0 2.88955e-06 0)
(0 2.46274e-06 0)
(0 2.04124e-06 0)
(0 1.65368e-06 0)
(0 1.31383e-06 0)
(0 1.02601e-06 0)
(0 7.88844e-07 0)
(0 5.97799e-07 0)
(0 4.4689e-07 0)
(0 3.29744e-07 0)
(0 2.40242e-07 0)
(0 1.72867e-07 0)
(0 1.22855e-07 0)
(0 8.62298e-08 0)
(0 5.97596e-08 0)
(0 4.08758e-08 0)
(0 2.75781e-08 0)
(0 1.83366e-08 0)
(0 1.20002e-08 0)
(0 7.71652e-09 0)
(0 4.86343e-09 0)
(0 2.99358e-09 0)
(0 1.78979e-09 0)
(0 1.03034e-09 0)
(0 5.62496e-10 0)
(0 2.8259e-10 0)
(0 1.21348e-10 0)
(0 3.32508e-11 0)
(0 -1.10618e-11 0)
(0 -3.01452e-11 0)
(0 -3.54391e-11 0)
(0 -3.37951e-11 0)
(0 -2.9159e-11 0)
(0 -2.36866e-11 0)
(0 -1.84664e-11 0)
(0 -1.39613e-11 0)
(0 -1.03034e-11 0)
(0 -7.45594e-12 0)
(0 -5.3043e-12 0)
(0 -3.72083e-12 0)
(0 -2.57643e-12 0)
(0 -1.76399e-12 0)
(0 -1.19491e-12 0)
(0 -8.01544e-13 0)
(0 -5.33042e-13 0)
(0 -3.52265e-13 0)
(0 -2.31524e-13 0)
(0 -1.49167e-13 0)
(0 -9.67323e-14 0)
(0 -6.11544e-14 0)
(0 -3.88012e-14 0)
(0 -2.40965e-14 0)
(0 -1.5988e-14 0)
(0 -1.07136e-14 0)
(0 -7.4327e-15 0)
(0 -5.65913e-15 0)
(0 -3.57069e-15 0)
(0 -2.12627e-15 0)
(0 -4.80687e-16 0)
(0 -2.74972e-16 0)
(0 -2.06236e-16 0)
(0 -2.2359e-16 0)
(0 -8.60514e-16 0)
(0 -1.25228e-15 0)
(0 -1.55536e-15 0)
(0 -7.57629e-16 0)
(0 -8.98376e-16 0)
(0 1.96171e-16 0)
(0 -1.12909e-15 0)
(0 -1.69639e-15 0)
(0 -1.36806e-15 0)
(0 -2.90856e-15 0)
(0 -1.83426e-15 0)
(0 -3.16118e-15 0)
(0 -4.27806e-15 0)
(0 -3.69069e-15 0)
(0 -3.04683e-15 0)
(0 -2.29108e-15 0)
(0 -2.83785e-15 0)
(0 -2.07619e-15 0)
(0 -2.75485e-15 0)
(0 -2.6877e-15 0)
(0 -2.38417e-15 0)
(0 -2.75139e-15 0)
(0 -2.19338e-15 0)
(0 -1.98255e-15 0)
(0 -2.40947e-15 0)
(0 -1.47459e-15 0)
(0 -1.98969e-15 0)
(0 1.07578e-17 0)
(0 -1.15475e-15 0)
(0 -9.59301e-16 0)
(0 -7.98103e-16 0)
(0 -1.88953e-15 0)
(0 -1.96665e-15 0)
(0 -1.94096e-15 0)
(0 -2.57922e-15 0)
(0 -2.60404e-15 0)
(0 -3.24171e-15 0)
(0 -4.00151e-15 0)
(0 -3.81333e-15 0)
(0 -4.33169e-15 0)
(0 -3.69715e-15 0)
(0 -4.23315e-15 0)
(0 -4.32832e-15 0)
(0 -3.95551e-15 0)
(0 -3.89412e-15 0)
(0 -2.16303e-15 0)
(0 -2.46262e-15 0)
(0 -2.29758e-15 0)
(0 -2.50802e-15 0)
(0 -1.78136e-15 0)
(0 -1.61978e-15 0)
(0 -2.50696e-15 0)
(0 -2.30696e-15 0)
(0 -2.0195e-15 0)
(0 -2.73653e-15 0)
(0 -1.9963e-15 0)
(0 -2.5662e-15 0)
(0 -2.37574e-15 0)
(0 -1.78405e-15 0)
(0 -1.19674e-15 0)
(0 -1.6583e-15 0)
(0 -2.52286e-15 0)
(0 -2.61839e-15 0)
(0 -3.03377e-15 0)
(0 -1.9227e-15 0)
(0 -1.2739e-15 0)
(0 -2.26699e-15 0)
(0 -2.0392e-15 0)
(0 -2.90843e-15 0)
(0 -1.66021e-15 0)
(0 -1.49802e-15 0)
(0 -1.37066e-15 0)
(0 -8.43272e-16 0)
(0 -1.05386e-15 0)
(0 -7.63566e-16 0)
(0 -3.72324e-16 0)
(0 -3.62785e-17 0)
(0 4.54043e-16 0)
(0 6.49238e-16 0)
(0 2.9222e-15 0)
(0 3.50306e-15 0)
(0 3.06869e-15 0)
(0 6.94253e-16 0)
(0 -1.41435e-17 0)
(0 8.64449e-16 0)
(0 1.43667e-15 0)
(0 2.20752e-16 0)
(0 9.76872e-16 0)
(0 1.11287e-15 0)
(0 8.85092e-16 0)
(0 5.46987e-16 0)
(0 8.40359e-16 0)
(0 -1.96929e-16 0)
(0 1.72272e-16 0)
(0 1.85133e-15 0)
(0 1.74681e-15 0)
(0 1.38679e-15 0)
(0 1.9503e-15 0)
(0 3.22579e-15 0)
(0 3.94993e-15 0)
(0 3.3937e-15 0)
(0 2.21129e-15 0)
(0 6.95637e-16 0)
(0 4.14592e-17 0)
(0 1.57062e-15 0)
(0 2.28779e-15 0)
(0 3.02233e-15 0)
(0 2.68909e-15 0)
(0 1.47894e-15 0)
(0 1.86256e-15 0)
(0 6.21649e-16 0)
(0 4.83894e-17 0)
(0 1.96378e-16 0)
(0 1.61118e-15 0)
(0 1.04592e-15 0)
(0 7.78711e-16 0)
(0 1.69916e-15 0)
(0 1.34212e-15 0)
(0 -6.63996e-16 0)
(0 3.25975e-16 0)
(0 -2.01825e-17 0)
(0 -4.22721e-16 0)
(0 -5.82242e-16 0)
(0 6.62889e-16 0)
(0 7.66438e-16 0)
(0 9.43546e-16 0)
(0 1.12124e-15 0)
(0 1.13499e-15 0)
(0 -2.08864e-16 0)
(0 -2.96623e-16 0)
(0 3.96724e-16 0)
(0 2.15996e-16 0)
(0 -3.73256e-16 0)
(0 6.92282e-17 0)
(0 8.41361e-17 0)
(0 1.18351e-15 0)
(0 2.26677e-15 0)
(0 2.88762e-15 0)
(0 2.93904e-15 0)
(0 3.60421e-15 0)
(0 2.03526e-15 0)
(0 1.28089e-15 0)
(0 1.51247e-15 0)
(0 1.66704e-15 0)
(0 2.4912e-15 0)
(0 1.13293e-15 0)
(0 2.91939e-17 0)
(0 -1.56093e-16 0)
(0 -6.65261e-16 0)
(0 -2.94399e-16 0)
(0 7.79914e-16 0)
(0 8.20674e-16 0)
(0 -2.0433e-17 0)
(0 -6.71735e-16 0)
(0 -4.0907e-16 0)
(0 -5.21748e-16 0)
(0 4.24132e-16 0)
(0 4.15486e-16 0)
(0 8.74995e-16 0)
(0 1.71579e-15 0)
(0 9.13476e-16 0)
(0 -5.51087e-17 0)
(0 -1.40281e-15 0)
(0 -1.46295e-15 0)
(0 -7.80307e-16 0)
(0 -4.17637e-16 0)
(0 -1.33245e-16 0)
(0 -4.09182e-17 0)
(0 -7.85511e-16 0)
(0 -1.36559e-16 0)
(0 -3.49216e-16 0)
(0 -4.29178e-16 0)
(0 8.80723e-18 0)
(0 9.83939e-16 0)
(0 2.22944e-15 0)
(0 1.31374e-15 0)
(0 1.15251e-15 0)
(0 4.39814e-16 0)
(0 -4.04929e-16 0)
(0 -4.5858e-16 0)
(0 -3.3872e-17 0)
(0 -2.32606e-16 0)
(0 -1.31222e-15 0)
(0 -1.37794e-15 0)
(0 -4.05607e-17 0)
(0 1.44759e-17 0)
(0 -4.24826e-16 0)
(0 -5.38724e-16 0)
(0 -1.13572e-15 0)
(0 -3.91987e-16 0)
(0 -7.13912e-17 0)
(0 4.39126e-16 0)
(0 2.15571e-16 0)
(0 -8.33189e-17 0)
(0 -1.04792e-16 0)
(0 2.9717e-16 0)
(0 -1.47323e-16 0)
(0 -3.94796e-16 0)
(0 -9.89356e-17 0)
(0 8.96213e-16 0)
(0 5.99809e-16 0)
(0 1.37697e-15 0)
(0 1.05628e-15 0)
(0 1.47832e-15 0)
(0 1.7899e-15 0)
(0 2.18537e-15 0)
(0 1.88883e-15 0)
(0 1.47745e-15 0)
(0 2.06089e-15 0)
(0 1.66874e-15 0)
(0 9.25084e-16 0)
(0 7.67042e-16 0)
(0 -9.41128e-16 0)
(0 -1.43571e-15 0)
(0 -1.78288e-15 0)
(0 -7.54337e-16 0)
(0 -1.4395e-15 0)
(0 -1.73044e-15 0)
(0 -1.74539e-15 0)
(0 -5.19744e-17 0)
(0 1.27446e-15 0)
(0 1.68118e-15 0)
(0 1.81258e-15 0)
(0 7.95814e-16 0)
(0 7.42361e-16 0)
(0 1.77934e-15 0)
(0 3.89194e-16 0)
(0 -1.24232e-16 0)
(0 1.75696e-16 0)
(0 9.16549e-17 0)
(0 -1.34686e-16 0)
(0 -2.28971e-16 0)
(0 2.08479e-16 0)
(0 2.44119e-17 0)
(0 2.54513e-16 0)
(0 2.29938e-15 0)
(0 2.7566e-15 0)
(0 2.63465e-15 0)
(0 1.79949e-15 0)
(0 -5.08939e-17 0)
(0 -2.14653e-16 0)
(0 -4.15696e-16 0)
(0 -1.3327e-15 0)
(0 -1.66418e-15 0)
(0 -8.18951e-16 0)
(0 -1.26177e-16 0)
(0 4.38849e-16 0)
(0 9.88693e-16 0)
(0 9.58032e-16 0)
(0 4.15151e-16 0)
(0 -8.69277e-17 0)
(0 -5.22674e-16 0)
(0 -1.32345e-16 0)
(0 6.2739e-16 0)
(0 3.73436e-16 0)
(0 1.16192e-15 0)
(0 3.24226e-16 0)
(0 -3.337e-17 0)
(0 -6.15123e-16 0)
(0 -1.23713e-15 0)
(0 6.5983e-16 0)
(0 -3.79228e-18 0)
(0 -3.77239e-16 0)
(0 -8.14603e-16 0)
(0 -1.10486e-15 0)
(0 -1.69211e-15 0)
(0 -1.80579e-15 0)
(0 -2.34932e-15 0)
(0 -3.55342e-15 0)
(0 -3.01079e-15 0)
(0 -1.59243e-15 0)
(0 -1.9309e-15 0)
(0 -2.79659e-15 0)
(0 -1.90394e-15 0)
(0 -2.31075e-15 0)
(0 -3.27363e-15 0)
(0 -2.79542e-15 0)
(0 -2.5774e-15 0)
(0 -1.02553e-15 0)
(0 -2.08103e-15 0)
(0 -2.3346e-15 0)
(0 -3.69206e-15 0)
(0 -3.90409e-15 0)
(0 -3.56549e-15 0)
(0 -3.50601e-15 0)
(0 -2.12784e-15 0)
(0 -2.69649e-15 0)
(0 -2.31113e-15 0)
(0 -2.87325e-15 0)
(0 -3.16376e-15 0)
(0 -3.04539e-15 0)
(0 -3.7127e-15 0)
(0 -3.34415e-15 0)
(0 -3.23567e-15 0)
(0 -3.17124e-15 0)
(0 -2.09906e-15 0)
(0 -3.02485e-15 0)
(0 -2.84732e-15 0)
(0 -4.14413e-15 0)
(0 -3.74152e-15 0)
(0 -3.19506e-15 0)
(0 -3.60357e-15 0)
(0 -3.88242e-15 0)
(0 -4.60228e-15 0)
(0 -5.00532e-15 0)
(0 -3.37759e-15 0)
(0 -4.04357e-15 0)
(0 -3.54131e-15 0)
(0 -3.45717e-15 0)
(0 -3.1081e-15 0)
(0 -3.68814e-15 0)
(0 -3.83358e-15 0)
(0 -3.60957e-15 0)
(0 -4.50145e-15 0)
(0 -4.41091e-15 0)
(0 -4.13837e-15 0)
(0 -3.30876e-15 0)
(0 -2.39312e-15 0)
(0 -2.25605e-15 0)
(0 -1.67361e-15 0)
(0 -1.34413e-15 0)
(0 -1.32066e-15 0)
(0 -2.07754e-15 0)
(0 -2.20092e-15 0)
(0 -1.48108e-15 0)
(0 -7.62852e-16 0)
(0 -7.03403e-16 0)
(0 -8.82713e-16 0)
(0 2.00015e-16 0)
(0 -8.22314e-16 0)
(0 -1.62931e-15 0)
(0 -1.25026e-15 0)
(0 -6.30919e-16 0)
(0 -7.0888e-16 0)
(0 -5.82967e-16 0)
(0 -6.58704e-16 0)
(0 -1.01576e-15 0)
(0 5.48789e-17 0)
(0 -4.09e-16 0)
(0 1.86006e-16 0)
(0 7.20383e-16 0)
(0 9.00236e-16 0)
(0 1.25491e-15 0)
(0 1.11411e-15 0)
(0 3.26227e-16 0)
(0 -1.05187e-15 0)
(0 -8.96957e-16 0)
(0 -6.13424e-17 0)
(0 -5.35621e-16 0)
(0 3.82047e-16 0)
(0 6.78427e-16 0)
(0 2.66196e-16 0)
(0 -1.84902e-16 0)
(0 2.55357e-17 0)
(0 -1.20648e-16 0)
(0 1.28451e-15 0)
(0 8.60074e-16 0)
(0 3.10838e-16 0)
(0 2.83796e-16 0)
(0 -6.77422e-16 0)
(0 -1.08815e-15 0)
(0 -1.27148e-15 0)
(0 -1.12418e-15 0)
(0 -2.19733e-15 0)
(0 -2.39107e-15 0)
(0 -2.66357e-15 0)
(0 -3.19416e-15 0)
(0 -3.20656e-15 0)
(0 -2.96894e-15 0)
(0 -3.2789e-15 0)
(0 -3.7518e-15 0)
(0 -3.09445e-15 0)
(0 -2.44983e-15 0)
(0 -2.18419e-15 0)
(0 -1.37058e-15 0)
(0 -4.46125e-16 0)
(0 -3.96343e-16 0)
(0 1.29967e-16 0)
(0 3.33875e-16 0)
(0 1.90937e-16 0)
(0 3.46537e-16 0)
(0 -6.02172e-16 0)
(0 -1.97514e-15 0)
(0 -1.57382e-15 0)
(0 -1.64587e-15 0)
(0 -1.75457e-15 0)
(0 -1.71307e-15 0)
(0 -2.23054e-15 0)
(0 -2.21528e-15 0)
(0 -2.39949e-15 0)
(0 -2.66867e-15 0)
(0 -3.12144e-15 0)
(0 -2.76123e-15 0)
(0 -1.7909e-15 0)
(0 -1.95796e-15 0)
(0 -2.61651e-15 0)
(0 -1.53097e-15 0)
(0 -1.84281e-15 0)
(0 -3.0939e-15 0)
(0 -2.22116e-15 0)
(0 -1.41285e-15 0)
(0 -1.4032e-15 0)
(0 4.23948e-16 0)
(0 -2.00414e-16 0)
(0 -1.1834e-15 0)
(0 -1.77287e-15 0)
(0 -1.46647e-15 0)
(0 -2.38846e-15 0)
(0 -3.04912e-15 0)
(0 -2.13106e-15 0)
(0 -2.18703e-15 0)
(0 -1.75164e-15 0)
(0 -9.88268e-16 0)
(0 -1.20935e-15 0)
(0 -1.59936e-15 0)
(0 -1.46025e-15 0)
(0 -1.64207e-15 0)
(0 -2.05965e-15 0)
(0 -6.31209e-05 0)
(0 -0.000150876 0)
(0 -0.000201868 0)
(0 -0.000220695 0)
(0 -0.000214522 0)
(0 -0.000191635 0)
(0 -0.000159911 0)
(0 -0.000125724 0)
(0 -9.34806e-05 0)
(0 -6.56875e-05 0)
(0 -4.33329e-05 0)
(0 -2.63724e-05 0)
(0 -1.41757e-05 0)
(0 -5.86578e-06 0)
(0 -5.39787e-07 0)
(0 2.61023e-06 0)
(0 4.24741e-06 0)
(0 4.88356e-06 0)
(0 4.89489e-06 0)
(0 4.54659e-06 0)
(0 4.01806e-06 0)
(0 3.42542e-06 0)
(0 2.83968e-06 0)
(0 2.30081e-06 0)
(0 1.82812e-06 0)
(0 1.4277e-06 0)
(0 1.0977e-06 0)
(0 8.31851e-07 0)
(0 6.21845e-07 0)
(0 4.58822e-07 0)
(0 3.34271e-07 0)
(0 2.40514e-07 0)
(0 1.70923e-07 0)
(0 1.19962e-07 0)
(0 8.31327e-08 0)
(0 5.68601e-08 0)
(0 3.83603e-08 0)
(0 2.55042e-08 0)
(0 1.66901e-08 0)
(0 1.07316e-08 0)
(0 6.76321e-09 0)
(0 4.16261e-09 0)
(0 2.48846e-09 0)
(0 1.43235e-09 0)
(0 7.81813e-10 0)
(0 3.92641e-10 0)
(0 1.68487e-10 0)
(0 4.60417e-11 0)
(0 -1.55297e-11 0)
(0 -4.20265e-11 0)
(0 -4.93582e-11 0)
(0 -4.70488e-11 0)
(0 -4.05851e-11 0)
(0 -3.29645e-11 0)
(0 -2.56941e-11 0)
(0 -1.94248e-11 0)
(0 -1.43358e-11 0)
(0 -1.03724e-11 0)
(0 -7.37945e-12 0)
(0 -5.17509e-12 0)
(0 -3.58203e-12 0)
(0 -2.45132e-12 0)
(0 -1.66008e-12 0)
(0 -1.11477e-12 0)
(0 -7.42025e-13 0)
(0 -4.89355e-13 0)
(0 -3.21075e-13 0)
(0 -2.07725e-13 0)
(0 -1.34764e-13 0)
(0 -8.6601e-14 0)