/*--------------------------------*- C++ -*----------------------------------*\
| =========                 |                                                 |
| \\      /  F ield         | OpenFOAM: The Open Source CFD Toolbox           |
|  \\    /   O peration     | Version:  4.1                                   |
|   \\  /    A nd           | Web:      www.OpenFOAM.org                      |
|    \\/     M anipulation  |                                                 |
\*---------------------------------------------------------------------------*/
FoamFile
{
    version     2.0;
    format      ascii;
    class       volVectorField;
    location    "1";
    object      U;
}
// * * * * * * * * * * * * * * * * * * * * * * * * * * * * * * * * * * * * * //

dimensions      [0 1 -1 0 0 0 0];

internalField   nonuniform List<vector> 
20400
(
(0 -1.46754e-05 0)
(0 -3.32917e-05 0)
(0 -4.44468e-05 0)
(0 -4.83099e-05 0)
(0 -4.6524e-05 0)
(0 -4.09872e-05 0)
(0 -3.35352e-05 0)
(0 -2.56612e-05 0)
(0 -1.83939e-05 0)
(0 -1.23034e-05 0)
(0 -7.58876e-06 0)
(0 -4.19653e-06 0)
(0 -1.93289e-06 0)
(0 -5.50628e-07 0)
(0 1.94098e-07 0)
(0 5.11292e-07 0)
(0 5.65697e-07 0)
(0 4.77073e-07 0)
(0 3.2643e-07 0)
(0 1.64356e-07 0)
(0 1.92174e-08 0)
(0 -9.5826e-08 0)
(0 -1.77313e-07 0)
(0 -2.2744e-07 0)
(0 -2.51246e-07 0)
(0 -2.5478e-07 0)
(0 -2.43979e-07 0)
(0 -2.2406e-07 0)
(0 -1.99248e-07 0)
(0 -1.72735e-07 0)
(0 -1.46755e-07 0)
(0 -1.22731e-07 0)
(0 -1.01446e-07 0)
(0 -8.32033e-08 0)
(0 -6.79814e-08 0)
(0 -5.55494e-08 0)
(0 -4.55641e-08 0)
(0 -3.76394e-08 0)
(0 -3.13922e-08 0)
(0 -2.64722e-08 0)
(0 -2.25767e-08 0)
(0 -1.9456e-08 0)
(0 -1.69125e-08 0)
(0 -1.47952e-08 0)
(0 -1.29931e-08 0)
(0 -1.14271e-08 0)
(0 -1.0043e-08 0)
(0 -8.80482e-09 0)
(0 -7.68943e-09 0)
(0 -6.68218e-09 0)
(0 -5.77369e-09 0)
(0 -4.95751e-09 0)
(0 -4.2286e-09 0)
(0 -3.58228e-09 0)
(0 -3.01375e-09 0)
(0 -2.51784e-09 0)
(0 -2.08898e-09 0)
(0 -1.72129e-09 0)
(0 -1.40872e-09 0)
(0 -1.14523e-09 0)
(0 -9.24929e-10 0)
(0 -7.42192e-10 0)
(0 -5.91788e-10 0)
(0 -4.68924e-10 0)
(0 -3.6929e-10 0)
(0 -2.89067e-10 0)
(0 -2.2492e-10 0)
(0 -1.73974e-10 0)
(0 -1.33778e-10 0)
(0 -1.0227e-10 0)
(0 -7.77281e-11 0)
(0 -5.87326e-11 0)
(0 -4.41197e-11 0)
(0 -3.29477e-11 0)
(0 -2.44578e-11 0)
(0 -1.80462e-11 0)
(0 -1.32336e-11 0)
(0 -9.64256e-12 0)
(0 -6.97963e-12 0)
(0 -5.01719e-12 0)
(0 -3.5808e-12 0)
(0 -2.53612e-12 0)
(0 -1.78233e-12 0)
(0 -1.24113e-12 0)
(0 -8.56003e-13 0)
(0 -5.83535e-13 0)
(0 -3.92866e-13 0)
(0 -2.61095e-13 0)
(0 -1.70061e-13 0)
(0 -1.07556e-13 0)
(0 -6.68874e-14 0)
(0 -4.0095e-14 0)
(0 -2.30666e-14 0)
(0 -1.14181e-14 0)
(0 -4.10896e-15 0)
(0 -1.03666e-15 0)
(0 6.69123e-16 0)
(0 1.53468e-15 0)
(0 2.55778e-15 0)
(0 2.1783e-15 0)
(0 3.2306e-15 0)
(0 1.5898e-15 0)
(0 1.13832e-15 0)
(0 1.52193e-15 0)
(0 1.29399e-15 0)
(0 1.48299e-15 0)
(0 1.456e-15 0)
(0 1.26476e-15 0)
(0 4.41326e-16 0)
(0 1.5487e-15 0)
(0 1.59914e-15 0)
(0 1.30532e-15 0)
(0 6.26336e-16 0)
(0 7.72924e-16 0)
(0 1.20552e-16 0)
(0 6.26121e-16 0)
(0 1.46223e-15 0)
(0 1.08468e-15 0)
(0 1.14167e-15 0)
(0 1.13223e-15 0)
(0 3.5919e-16 0)
(0 4.64679e-16 0)
(0 -5.23515e-16 0)
(0 -1.76552e-16 0)
(0 -4.60083e-16 0)
(0 -1.62539e-16 0)
(0 -1.98496e-16 0)
(0 -3.6863e-16 0)
(0 1.59107e-16 0)
(0 5.67825e-17 0)
(0 1.98035e-16 0)
(0 7.53422e-16 0)
(0 3.12936e-16 0)
(0 3.471e-16 0)
(0 1.24102e-15 0)
(0 9.12702e-16 0)
(0 5.93268e-16 0)
(0 9.59572e-17 0)
(0 5.1163e-16 0)
(0 4.44542e-16 0)
(0 2.96704e-16 0)
(0 -6.75485e-17 0)
(0 -4.13418e-16 0)
(0 -6.91662e-16 0)
(0 -9.83029e-16 0)
(0 -5.96891e-16 0)
(0 -5.25726e-16 0)
(0 -1.26364e-15 0)
(0 -2.84598e-16 0)
(0 -2.27427e-16 0)
(0 9.22065e-17 0)
(0 -7.85351e-17 0)
(0 -2.84925e-16 0)
(0 -3.06356e-17 0)
(0 1.01163e-16 0)
(0 -3.54927e-16 0)
(0 -3.13101e-16 0)
(0 -5.45371e-16 0)
(0 -5.39891e-16 0)
(0 -4.85993e-16 0)
(0 -3.36735e-16 0)
(0 1.20106e-16 0)
(0 -3.74084e-16 0)
(0 8.09165e-16 0)
(0 -4.93179e-16 0)
(0 -1.20091e-15 0)
(0 -8.87548e-16 0)
(0 -7.80023e-16 0)
(0 -1.13363e-15 0)
(0 -1.06932e-15 0)
(0 -3.33875e-16 0)
(0 -4.97914e-16 0)
(0 -3.73322e-16 0)
(0 -2.33335e-16 0)
(0 -3.61118e-16 0)
(0 -1.76767e-16 0)
(0 -9.55373e-17 0)
(0 -2.78168e-17 0)
(0 7.65112e-17 0)
(0 1.85276e-16 0)
(0 -5.60117e-16 0)
(0 5.12593e-17 0)
(0 1.89415e-16 0)
(0 2.23348e-18 0)
(0 -2.49196e-16 0)
(0 -2.10724e-16 0)
(0 6.49852e-17 0)
(0 4.30939e-16 0)
(0 -2.38095e-16 0)
(0 -6.59111e-16 0)
(0 -3.87497e-16 0)
(0 -3.95302e-16 0)
(0 -6.10662e-16 0)
(0 -6.63431e-16 0)
(0 -8.34774e-16 0)
(0 -9.46299e-16 0)
(0 -1.55627e-15 0)
(0 -7.65164e-16 0)
(0 -5.75117e-16 0)
(0 -3.00011e-16 0)
(0 -3.84045e-16 0)
(0 -7.52466e-16 0)
(0 -1.39888e-15 0)
(0 -6.08427e-16 0)
(0 -2.96772e-16 0)
(0 -1.8124e-16 0)
(0 4.72447e-17 0)
(0 2.53681e-16 0)
(0 -1.46852e-16 0)
(0 -1.8629e-16 0)
(0 5.40647e-16 0)
(0 2.00891e-16 0)
(0 -3.71618e-16 0)
(0 -5.24638e-16 0)
(0 -3.54998e-16 0)
(0 -2.45821e-16 0)
(0 -1.64997e-16 0)
(0 -4.73088e-16 0)
(0 -3.78248e-16 0)
(0 -2.93467e-16 0)
(0 -9.55395e-17 0)
(0 -1.40934e-16 0)
(0 -1.55877e-16 0)
(0 -1.94636e-16 0)
(0 1.20838e-16 0)
(0 -1.59196e-16 0)
(0 -4.36739e-16 0)
(0 -7.66517e-16 0)
(0 -6.37687e-16 0)
(0 -2.79366e-16 0)
(0 -6.65399e-16 0)
(0 -6.88373e-16 0)
(0 -1.51493e-16 0)
(0 -1.11404e-16 0)
(0 -4.60882e-16 0)
(0 -1.16925e-16 0)
(0 -2.46051e-16 0)
(0 -5.89184e-17 0)
(0 3.67023e-16 0)
(0 -5.74097e-16 0)
(0 -8.10979e-16 0)
(0 -5.23135e-16 0)
(0 -7.36225e-16 0)
(0 -4.30124e-16 0)
(0 -1.89214e-16 0)
(0 -8.60708e-17 0)
(0 -8.58487e-16 0)
(0 -1.00291e-15 0)
(0 -1.26772e-15 0)
(0 -8.4862e-16 0)
(0 -1.21218e-16 0)
(0 4.07922e-16 0)
(0 -4.70694e-16 0)
(0 -5.47537e-16 0)
(0 -2.26475e-16 0)
(0 -1.75184e-16 0)
(0 3.36512e-16 0)
(0 -4.10414e-16 0)
(0 -4.79594e-16 0)
(0 -6.79687e-16 0)
(0 -1.53822e-15 0)
(0 -1.64769e-15 0)
(0 -6.51552e-16 0)
(0 -2.78559e-18 0)
(0 -6.52101e-16 0)
(0 -3.49026e-16 0)
(0 -5.07588e-16 0)
(0 -6.81687e-16 0)
(0 -9.20656e-16 0)
(0 -1.46156e-16 0)
(0 -4.86535e-16 0)
(0 -2.85983e-16 0)
(0 -2.36386e-16 0)
(0 -3.40277e-16 0)
(0 -1.3836e-16 0)
(0 -6.50328e-17 0)
(0 9.82233e-16 0)
(0 -1.80004e-16 0)
(0 -1.48541e-16 0)
(0 -4.96106e-16 0)
(0 1.08243e-16 0)
(0 1.04412e-16 0)
(0 -1.14657e-16 0)
(0 -3.29003e-16 0)
(0 -3.15442e-16 0)
(0 9.28188e-17 0)
(0 -1.7877e-16 0)
(0 2.24332e-16 0)
(0 -1.97866e-16 0)
(0 -3.95659e-16 0)
(0 -6.98791e-16 0)
(0 -3.41507e-16 0)
(0 -7.94263e-16 0)
(0 -7.08243e-16 0)
(0 -7.35171e-16 0)
(0 -3.68866e-16 0)
(0 -6.18023e-16 0)
(0 -1.68666e-15 0)
(0 -1.05835e-15 0)
(0 -8.2137e-16 0)
(0 -7.30814e-16 0)
(0 1.94327e-16 0)
(0 5.56876e-16 0)
(0 2.07437e-17 0)
(0 -2.27889e-16 0)
(0 -7.59767e-16 0)
(0 -3.71897e-16 0)
(0 -1.66339e-16 0)
(0 -5.24638e-16 0)
(0 -1.13482e-15 0)
(0 -2.1261e-16 0)
(0 -6.84353e-16 0)
(0 -1.37195e-15 0)
(0 -5.68926e-16 0)
(0 -9.14059e-16 0)
(0 -1.43853e-15 0)
(0 -5.96026e-16 0)
(0 -7.73179e-16 0)
(0 -5.37953e-16 0)
(0 -9.17925e-16 0)
(0 -1.21374e-15 0)
(0 -1.3151e-15 0)
(0 -1.67155e-15 0)
(0 -1.66421e-15 0)
(0 -8.7244e-16 0)
(0 1.11747e-16 0)
(0 -2.04161e-16 0)
(0 -1.32837e-17 0)
(0 -6.32007e-16 0)
(0 1.6785e-16 0)
(0 -6.58243e-16 0)
(0 -4.66992e-16 0)
(0 -2.5115e-16 0)
(0 -2.07079e-16 0)
(0 -5.42454e-16 0)
(0 -8.32739e-16 0)
(0 -6.32722e-16 0)
(0 -1.01706e-15 0)
(0 -8.14222e-16 0)
(0 -5.76175e-16 0)
(0 -3.15909e-16 0)
(0 2.9008e-16 0)
(0 -2.12045e-16 0)
(0 1.03058e-18 0)
(0 -3.15617e-16 0)
(0 -8.55649e-16 0)
(0 -5.53427e-16 0)
(0 -1.35969e-15 0)
(0 -6.05079e-16 0)
(0 -7.1627e-16 0)
(0 -8.25769e-16 0)
(0 7.92779e-17 0)
(0 -5.52705e-17 0)
(0 -1.37977e-16 0)
(0 -8.7459e-16 0)
(0 -6.253e-16 0)
(0 -5.59745e-16 0)
(0 -9.21023e-16 0)
(0 -2.23769e-16 0)
(0 -9.76148e-16 0)
(0 -6.50818e-16 0)
(0 -8.31884e-17 0)
(0 -4.8742e-16 0)
(0 -5.54461e-16 0)
(0 -1.03844e-15 0)
(0 -4.42833e-16 0)
(0 -9.30882e-17 0)
(0 -2.0344e-16 0)
(0 -1.84763e-16 0)
(0 -3.43462e-16 0)
(0 -7.34431e-16 0)
(0 -1.83422e-18 0)
(0 -6.04466e-16 0)
(0 6.20998e-16 0)
(0 2.17638e-16 0)
(0 5.49066e-16 0)
(0 6.27015e-16 0)
(0 2.29256e-16 0)
(0 1.05595e-16 0)
(0 -1.17603e-15 0)
(0 -1.76972e-16 0)
(0 2.57902e-16 0)
(0 3.58647e-16 0)
(0 -5.50507e-16 0)
(0 -5.86597e-16 0)
(0 -2.71167e-16 0)
(0 -1.62456e-15 0)
(0 -6.10395e-16 0)
(0 -2.79904e-16 0)
(0 -6.1941e-16 0)
(0 -7.0512e-17 0)
(0 1.17973e-16 0)
(0 -3.29752e-16 0)
(0 -2.15762e-16 0)
(0 -6.80452e-16 0)
(0 -7.51872e-16 0)
(0 4.36783e-16 0)
(0 3.30562e-16 0)
(0 3.65675e-16 0)
(0 7.68996e-16 0)
(0 2.16995e-16 0)
(0 1.11638e-16 0)
(0 -6.41701e-16 0)
(0 -1.82357e-16 0)
(0 -9.53225e-16 0)
(0 1.36585e-16 0)
(0 9.80867e-19 0)
(0 -5.98591e-17 0)
(0 -1.49178e-16 0)
(0 -8.7207e-17 0)
(0 2.64211e-17 0)
(0 -2.1e-16 0)
(0 1.7755e-17 0)
(0 -5.09943e-16 0)
(0 -4.76671e-17 0)
(0 -4.32588e-17 0)
(0 -4.14708e-16 0)
(0 -2.65481e-16 0)
(0 -2.88277e-16 0)
(0 9.86381e-17 0)
(0 -3.22428e-17 0)
(0 -1.07094e-15 0)
(0 -1.21747e-15 0)
(0 -1.18023e-16 0)
(0 -4.54547e-16 0)
(0 3.51881e-16 0)
(0 1.23243e-15 0)
(0 1.64819e-15 0)
(0 5.40168e-16 0)
(0 9.3474e-17 0)
(0 1.89929e-16 0)
(0 -3.2882e-16 0)
(0 1.14068e-16 0)
(0 -6.42832e-16 0)
(0 -5.11774e-16 0)
(0 -2.95937e-16 0)
(0 -1.04615e-16 0)
(0 4.06186e-16 0)
(0 -2.84795e-16 0)
(0 3.25892e-17 0)
(0 2.24062e-16 0)
(0 5.61635e-16 0)
(0 1.85747e-16 0)
(0 -4.80405e-16 0)
(0 -1.94064e-16 0)
(0 -5.92059e-16 0)
(0 -4.39666e-16 0)
(0 -2.43409e-16 0)
(0 -6.00131e-16 0)
(0 -2.27796e-16 0)
(0 4.99928e-16 0)
(0 3.76658e-16 0)
(0 -7.29019e-16 0)
(0 -9.22128e-16 0)
(0 -1.51997e-15 0)
(0 -9.70507e-17 0)
(0 -5.4127e-16 0)
(0 6.16412e-16 0)
(0 1.0305e-16 0)
(0 -2.84214e-16 0)
(0 -1.01076e-16 0)
(0 2.76229e-16 0)
(0 1.88837e-16 0)
(0 4.91129e-16 0)
(0 5.23057e-16 0)
(0 6.65565e-16 0)
(0 -5.14764e-16 0)
(0 -4.56326e-16 0)
(0 -9.15483e-16 0)
(0 -9.74312e-16 0)
(0 -7.55694e-16 0)
(0 -8.69827e-16 0)
(0 2.59873e-16 0)
(0 -1.21363e-16 0)
(0 -9.08741e-16 0)
(0 -3.89938e-16 0)
(0 -9.54503e-17 0)
(0 1.41944e-16 0)
(0 9.13773e-17 0)
(0 -1.26553e-16 0)
(0 1.15248e-16 0)
(0 4.75701e-16 0)
(0 6.31354e-16 0)
(0 -8.23467e-16 0)
(0 -8.35712e-16 0)
(0 -9.36435e-16 0)
(0 -1.5725e-16 0)
(0 -1.76361e-16 0)
(0 -3.50811e-16 0)
(0 1.38788e-16 0)
(0 -2.26484e-16 0)
(0 -8.00821e-16 0)
(0 -2.53764e-16 0)
(0 -1.21982e-15 0)
(0 -7.68068e-16 0)
(0 -4.61799e-16 0)
(0 -7.4636e-16 0)
(0 -8.25735e-16 0)
(0 1.32857e-16 0)
(0 -1.35403e-16 0)
(0 -4.23656e-05 0)
(0 -0.000100832 0)
(0 -0.000134242 0)
(0 -0.000145632 0)
(0 -0.000139979 0)
(0 -0.000123095 0)
(0 -0.000100532 0)
(0 -7.67863e-05 0)
(0 -5.49349e-05 0)
(0 -3.66672e-05 0)
(0 -2.25578e-05 0)
(0 -1.24276e-05 0)
(0 -5.68274e-06 0)
(0 -1.57516e-06 0)
(0 6.28923e-07 0)
(0 1.55925e-06 0)
(0 1.70855e-06 0)
(0 1.4343e-06 0)
(0 9.77858e-07 0)
(0 4.89648e-07 0)
(0 5.37711e-08 0)
(0 -2.9098e-07 0)
(0 -5.34676e-07 0)
(0 -6.84179e-07 0)
(0 -7.54771e-07 0)
(0 -7.64678e-07 0)
(0 -7.31741e-07 0)
(0 -6.71605e-07 0)
(0 -5.96935e-07 0)
(0 -5.17276e-07 0)
(0 -4.39303e-07 0)
(0 -3.67262e-07 0)
(0 -3.03475e-07 0)
(0 -2.48842e-07 0)
(0 -2.03278e-07 0)
(0 -1.66083e-07 0)
(0 -1.36222e-07 0)
(0 -1.12531e-07 0)
(0 -9.38612e-08 0)
(0 -7.9161e-08 0)
(0 -6.7523e-08 0)
(0 -5.81997e-08 0)
(0 -5.05996e-08 0)
(0 -4.42715e-08 0)
(0 -3.88836e-08 0)
(0 -3.42001e-08 0)
(0 -3.00593e-08 0)
(0 -2.6354e-08 0)
(0 -2.30154e-08 0)
(0 -2.00001e-08 0)
(0 -1.72801e-08 0)
(0 -1.48365e-08 0)
(0 -1.26541e-08 0)
(0 -1.07191e-08 0)
(0 -9.0171e-09 0)
(0 -7.53261e-09 0)
(0 -6.24896e-09 0)
(0 -5.14851e-09 0)
(0 -4.21314e-09 0)
(0 -3.42473e-09 0)
(0 -2.76561e-09 0)
(0 -2.21896e-09 0)
(0 -1.76909e-09 0)
(0 -1.40163e-09 0)
(0 -1.10369e-09 0)
(0 -8.63829e-10 0)
(0 -6.72056e-10 0)
(0 -5.19766e-10 0)
(0 -3.99626e-10 0)
(0 -3.05465e-10 0)
(0 -2.32133e-10 0)
(0 -1.7538e-10 0)
(0 -1.31727e-10 0)
(0 -9.83572e-11 0)
(0 -7.30041e-11 0)
(0 -5.38586e-11 0)
(0 -3.94867e-11 0)
(0 -2.87677e-11 0)
(0 -2.08201e-11 0)
(0 -1.49632e-11 0)
(0 -1.06773e-11 0)
(0 -7.5623e-12 0)
(0 -5.31286e-12 0)
(0 -3.69893e-12 0)
(0 -2.54911e-12 0)
(0 -1.73815e-12 0)
(0 -1.16948e-12 0)
(0 -7.77963e-13 0)
(0 -5.05724e-13 0)
(0 -3.21285e-13 0)
(0 -1.98987e-13 0)
(0 -1.18647e-13 0)
(0 -6.6918e-14 0)
(0 -3.23634e-14 0)
(0 -1.30095e-14 0)
(0 -1.67591e-15 0)
(0 3.33905e-15 0)
(0 5.5077e-15 0)
(0 8.37501e-15 0)
(0 8.62455e-15 0)
(0 7.62682e-15 0)
(0 5.87846e-15 0)
(0 3.56141e-15 0)
(0 4.19487e-15 0)
(0 3.09632e-15 0)
(0 3.79303e-15 0)
(0 3.8052e-15 0)
(0 2.81577e-15 0)
(0 2.83569e-15 0)
(0 4.04814e-15 0)
(0 4.04355e-15 0)
(0 3.16703e-15 0)
(0 1.69631e-15 0)
(0 2.29511e-15 0)
(0 1.95598e-15 0)
(0 1.74601e-15 0)
(0 2.59293e-15 0)
(0 2.67061e-15 0)
(0 2.85247e-15 0)
(0 1.91151e-15 0)
(0 1.00386e-15 0)
(0 6.17388e-16 0)
(0 -5.9786e-16 0)
(0 -1.40226e-16 0)
(0 -8.52238e-16 0)
(0 4.94793e-16 0)
(0 1.28446e-15 0)
(0 -6.42365e-16 0)
(0 2.09158e-15 0)
(0 1.12216e-15 0)
(0 1.63788e-15 0)
(0 2.06337e-15 0)
(0 1.28742e-15 0)
(0 1.92391e-15 0)
(0 3.23276e-15 0)
(0 2.1591e-15 0)
(0 2.39815e-15 0)
(0 6.44485e-16 0)
(0 1.29918e-15 0)
(0 1.5835e-15 0)
(0 6.70802e-16 0)
(0 -3.42039e-16 0)
(0 -1.30468e-15 0)
(0 -1.78865e-15 0)
(0 -3.01929e-15 0)
(0 -1.73903e-15 0)
(0 -1.71065e-15 0)
(0 -2.73719e-15 0)
(0 -1.1235e-15 0)
(0 -1.22463e-15 0)
(0 -9.67866e-16 0)
(0 -1.16914e-16 0)
(0 -1.08354e-15 0)
(0 -7.37611e-16 0)
(0 -1.01407e-15 0)
(0 -1.39922e-15 0)
(0 -1.1114e-15 0)
(0 -1.56772e-15 0)
(0 -1.67712e-15 0)
(0 -1.14527e-15 0)
(0 -1.58353e-15 0)
(0 5.96303e-16 0)
(0 -7.45974e-16 0)
(0 2.58694e-16 0)
(0 -1.54945e-15 0)
(0 -2.44037e-15 0)
(0 -2.18282e-15 0)
(0 -3.62395e-15 0)
(0 -3.58426e-15 0)
(0 -3.83711e-15 0)
(0 -1.62221e-15 0)
(0 -1.5305e-15 0)
(0 -9.47185e-16 0)
(0 -1.5646e-16 0)
(0 -1.04093e-15 0)
(0 -9.97368e-16 0)
(0 -7.66901e-16 0)
(0 -6.71984e-16 0)
(0 3.77403e-16 0)
(0 -5.80024e-17 0)
(0 -9.92613e-16 0)
(0 6.69332e-16 0)
(0 -1.34675e-17 0)
(0 -6.09215e-16 0)
(0 -1.64304e-15 0)
(0 -9.09126e-16 0)
(0 2.64497e-16 0)
(0 3.64673e-16 0)
(0 7.43186e-17 0)
(0 -1.53357e-15 0)
(0 -1.03922e-15 0)
(0 -1.20734e-15 0)
(0 -2.56667e-15 0)
(0 -2.78142e-15 0)
(0 -3.09913e-15 0)
(0 -2.92959e-15 0)
(0 -2.90041e-15 0)
(0 -2.04097e-15 0)
(0 -1.17799e-15 0)
(0 -1.56344e-15 0)
(0 -2.15332e-15 0)
(0 -2.24332e-15 0)
(0 -2.6833e-15 0)
(0 -2.29551e-15 0)
(0 -4.43998e-16 0)
(0 -7.67415e-16 0)
(0 -1.3169e-16 0)
(0 2.30394e-16 0)
(0 6.36524e-16 0)
(0 -9.48609e-16 0)
(0 1.45655e-16 0)
(0 -4.8329e-17 0)
(0 -1.79556e-15 0)
(0 -9.18367e-16 0)
(0 -1.2545e-15 0)
(0 -9.95784e-16 0)
(0 1.01661e-16 0)
(0 -1.39803e-15 0)
(0 -1.10899e-15 0)
(0 -1.48529e-15 0)
(0 -5.30637e-16 0)
(0 -8.2997e-16 0)
(0 -7.5344e-16 0)
(0 -4.38528e-16 0)
(0 -1.91522e-15 0)
(0 -1.86786e-15 0)
(0 -1.05324e-15 0)
(0 -1.41445e-15 0)
(0 -2.44355e-15 0)
(0 -1.89662e-15 0)
(0 -1.94724e-15 0)
(0 -2.05423e-15 0)
(0 -1.29565e-15 0)
(0 -8.0117e-16 0)
(0 -1.5867e-15 0)
(0 -4.0827e-16 0)
(0 -1.41265e-15 0)
(0 -3.15978e-16 0)
(0 6.74074e-16 0)
(0 -8.63872e-16 0)
(0 -1.81925e-15 0)
(0 -1.29984e-15 0)
(0 -2.74285e-15 0)
(0 -2.36043e-15 0)
(0 -1.9933e-15 0)
(0 -1.51002e-15 0)
(0 -1.77711e-15 0)
(0 -2.06904e-15 0)
(0 -2.50608e-15 0)
(0 -3.09086e-15 0)
(0 -1.3412e-15 0)
(0 -1.15384e-15 0)
(0 -2.31782e-15 0)
(0 -2.51469e-15 0)
(0 -7.82934e-16 0)
(0 -6.84806e-16 0)
(0 7.92327e-16 0)
(0 -6.62031e-16 0)
(0 -1.93356e-16 0)
(0 -1.51639e-15 0)
(0 -2.52474e-15 0)
(0 -2.66235e-15 0)
(0 -1.84536e-15 0)
(0 -5.903e-16 0)
(0 -1.22396e-15 0)
(0 -7.32022e-16 0)
(0 -2.18937e-15 0)
(0 -2.58434e-15 0)
(0 -2.0715e-15 0)
(0 -1.42276e-15 0)
(0 -1.79894e-15 0)
(0 -3.02741e-16 0)
(0 -9.18389e-16 0)
(0 -1.76305e-18 0)
(0 -7.43936e-16 0)
(0 -7.13279e-16 0)
(0 5.89657e-16 0)
(0 -2.14585e-16 0)
(0 -5.38236e-16 0)
(0 -3.54823e-16 0)
(0 -6.79343e-16 0)
(0 -4.7828e-16 0)
(0 -5.03449e-16 0)
(0 -6.7116e-16 0)
(0 -5.68418e-16 0)
(0 -6.62312e-16 0)
(0 -5.10863e-16 0)
(0 -1.80757e-18 0)
(0 -6.10279e-16 0)
(0 -1.47769e-15 0)
(0 -1.44919e-15 0)
(0 -5.44373e-16 0)
(0 -1.91148e-15 0)
(0 -6.99103e-16 0)
(0 -1.05929e-15 0)
(0 -1.03162e-15 0)
(0 -2.06125e-15 0)
(0 -3.00511e-15 0)
(0 -2.89218e-15 0)
(0 -2.97315e-15 0)
(0 -7.5625e-16 0)
(0 1.27864e-15 0)
(0 1.82824e-15 0)
(0 -2.79088e-16 0)
(0 -6.21192e-16 0)
(0 -2.14018e-15 0)
(0 -1.90707e-15 0)
(0 -1.54475e-16 0)
(0 -3.32965e-16 0)
(0 -1.80052e-15 0)
(0 -1.52139e-15 0)
(0 -2.70496e-15 0)
(0 -3.08679e-15 0)
(0 -2.49863e-15 0)
(0 -3.348e-15 0)
(0 -3.65047e-15 0)
(0 -1.81552e-15 0)
(0 -1.78331e-15 0)
(0 -1.32625e-15 0)
(0 -3.10381e-15 0)
(0 -4.31787e-15 0)
(0 -4.29809e-15 0)
(0 -4.27239e-15 0)
(0 -3.50606e-15 0)
(0 -2.5983e-15 0)
(0 -5.38608e-16 0)
(0 -4.23639e-16 0)
(0 5.13721e-16 0)
(0 -1.40774e-15 0)
(0 -6.87695e-16 0)
(0 -1.49185e-15 0)
(0 -9.58646e-16 0)
(0 -1.53003e-15 0)
(0 -7.1332e-16 0)
(0 -1.85104e-15 0)
(0 -1.86792e-15 0)
(0 -2.50815e-15 0)
(0 -2.98469e-15 0)
(0 -2.478e-15 0)
(0 -1.94506e-15 0)
(0 -1.57843e-15 0)
(0 3.58246e-16 0)
(0 5.52499e-17 0)
(0 -2.06913e-16 0)
(0 -1.72388e-15 0)
(0 -1.96875e-15 0)
(0 -1.25838e-15 0)
(0 -2.05809e-15 0)
(0 -1.64076e-15 0)
(0 -2.25622e-15 0)
(0 -5.44813e-16 0)
(0 1.71879e-16 0)
(0 9.90017e-17 0)
(0 -1.18386e-15 0)
(0 -2.65035e-15 0)
(0 -2.69339e-15 0)
(0 -2.10638e-15 0)
(0 -1.83879e-15 0)
(0 -6.35399e-17 0)
(0 -2.85522e-15 0)
(0 -1.70502e-15 0)
(0 -1.60363e-15 0)
(0 -1.93746e-15 0)
(0 -1.56071e-15 0)
(0 -2.85452e-15 0)
(0 -1.61365e-15 0)
(0 1.49546e-16 0)
(0 -3.60692e-16 0)
(0 -8.22427e-16 0)
(0 -1.57754e-15 0)
(0 -1.97662e-15 0)
(0 -6.15437e-16 0)
(0 -1.10987e-15 0)
(0 -1.58833e-16 0)
(0 -1.57114e-16 0)
(0 1.38069e-15 0)
(0 1.86345e-15 0)
(0 2.06982e-15 0)
(0 -1.92711e-17 0)
(0 -9.3004e-16 0)
(0 -6.78668e-16 0)
(0 -4.71896e-17 0)
(0 3.51857e-16 0)
(0 -1.08384e-15 0)
(0 -1.96782e-15 0)
(0 -4.7365e-16 0)
(0 -3.21674e-15 0)
(0 -3.82107e-15 0)
(0 -2.46691e-15 0)
(0 -1.49599e-15 0)
(0 -2.81601e-16 0)
(0 -1.65701e-16 0)
(0 -6.34346e-16 0)
(0 -5.06678e-16 0)
(0 -1.62712e-15 0)
(0 -1.5808e-15 0)
(0 5.57081e-16 0)
(0 1.42571e-15 0)
(0 7.4969e-16 0)
(0 8.13158e-16 0)
(0 1.02548e-15 0)
(0 8.42793e-16 0)
(0 -7.78767e-17 0)
(0 -1.25373e-15 0)
(0 -1.86746e-15 0)
(0 2.08944e-16 0)
(0 8.78614e-17 0)
(0 8.40136e-16 0)
(0 -1.06678e-15 0)
(0 -6.158e-16 0)
(0 -2.0667e-16 0)
(0 -7.02241e-18 0)
(0 6.28779e-16 0)
(0 -1.05735e-15 0)
(0 -2.62034e-16 0)
(0 2.76852e-17 0)
(0 -1.1037e-15 0)
(0 3.55709e-16 0)
(0 -1.00661e-15 0)
(0 -4.69877e-16 0)
(0 -8.80627e-16 0)
(0 -2.89784e-15 0)
(0 -1.95839e-15 0)
(0 1.68475e-16 0)
(0 6.78591e-17 0)
(0 1.07406e-15 0)
(0 2.2018e-15 0)
(0 3.01556e-15 0)
(0 1.28734e-15 0)
(0 1.02664e-18 0)
(0 4.99825e-16 0)
(0 -6.12912e-16 0)
(0 4.21043e-16 0)
(0 -2.09044e-15 0)
(0 -2.36567e-15 0)
(0 -8.41849e-16 0)
(0 -1.84779e-15 0)
(0 1.11479e-17 0)
(0 -8.13682e-16 0)
(0 2.5429e-16 0)
(0 2.62067e-16 0)
(0 4.24782e-16 0)
(0 1.11523e-15 0)
(0 -1.91673e-15 0)
(0 -1.1704e-15 0)
(0 -2.05051e-15 0)
(0 -1.7065e-15 0)
(0 -5.56575e-16 0)
(0 3.15789e-16 0)
(0 5.20023e-16 0)
(0 1.54611e-15 0)
(0 1.971e-15 0)
(0 7.05862e-16 0)
(0 -1.59722e-15 0)
(0 -1.62e-15 0)
(0 1.13416e-16 0)
(0 -1.0091e-15 0)
(0 1.6116e-15 0)
(0 -1.40749e-16 0)
(0 -1.21572e-15 0)
(0 -6.04886e-16 0)
(0 6.35416e-17 0)
(0 1.43503e-15 0)
(0 1.0015e-15 0)
(0 7.09689e-16 0)
(0 8.8698e-16 0)
(0 1.68161e-16 0)
(0 -2.79048e-17 0)
(0 -2.01665e-15 0)
(0 -1.50686e-15 0)
(0 -2.65399e-15 0)
(0 -2.35997e-15 0)
(0 -7.965e-16 0)
(0 -1.12215e-15 0)
(0 -1.9964e-15 0)
(0 -1.64666e-15 0)
(0 3.11023e-16 0)
(0 1.47532e-15 0)
(0 -1.66327e-16 0)
(0 4.53257e-16 0)
(0 1.43271e-15 0)
(0 1.50971e-15 0)
(0 1.14258e-15 0)
(0 -1.09296e-15 0)
(0 -2.92056e-15 0)
(0 -2.54081e-15 0)
(0 -1.01177e-15 0)
(0 2.05461e-16 0)
(0 -4.26597e-16 0)
(0 3.51144e-16 0)
(0 -6.57759e-16 0)
(0 -1.21238e-15 0)
(0 -1.71287e-16 0)
(0 -2.61677e-15 0)
(0 -1.07089e-15 0)
(0 -2.06816e-15 0)
(0 -3.06948e-15 0)
(0 -2.22929e-15 0)
(0 -1.78642e-17 0)
(0 -8.47168e-16 0)
(0 -7.08435e-05 0)
(0 -0.000168694 0)
(0 -0.000224313 0)
(0 -0.000243012 0)
(0 -0.000233244 0)
(0 -0.000204819 0)
(0 -0.000167057 0)
(0 -0.00012745 0)
(0 -9.10921e-05 0)
(0 -6.07543e-05 0)
(0 -3.73552e-05 0)
(0 -2.05721e-05 0)
(0 -9.40496e-06 0)
(0 -2.6067e-06 0)
(0 1.04073e-06 0)
(0 2.58041e-06 0)
(0 2.82765e-06 0)
(0 2.37373e-06 0)
(0 1.61793e-06 0)
(0 8.09258e-07 0)
(0 8.70457e-08 0)
(0 -4.8433e-07 0)
(0 -8.88301e-07 0)
(0 -1.13615e-06 0)
(0 -1.25316e-06 0)
(0 -1.26951e-06 0)
(0 -1.21479e-06 0)
(0 -1.11493e-06 0)
(0 -9.90953e-07 0)
(0 -8.58699e-07 0)
(0 -7.29249e-07 0)
(0 -6.09649e-07 0)
(0 -5.03754e-07 0)
(0 -4.13057e-07 0)
(0 -3.37419e-07 0)
(0 -2.75675e-07 0)
(0 -2.26106e-07 0)
(0 -1.86781e-07 0)
(0 -1.55791e-07 0)
(0 -1.31391e-07 0)
(0 -1.12074e-07 0)
(0 -9.65998e-08 0)
(0 -8.39854e-08 0)
(0 -7.34822e-08 0)
(0 -6.45395e-08 0)
(0 -5.67659e-08 0)
(0 -4.98929e-08 0)
(0 -4.37428e-08 0)
(0 -3.82014e-08 0)
(0 -3.31964e-08 0)
(0 -2.86817e-08 0)
(0 -2.46257e-08 0)
(0 -2.10033e-08 0)
(0 -1.77915e-08 0)
(0 -1.49665e-08 0)
(0 -1.25025e-08 0)
(0 -1.03719e-08 0)
(0 -8.54536e-09 0)
(0 -6.99284e-09 0)
(0 -5.68424e-09 0)
(0 -4.59024e-09 0)
(0 -3.68292e-09 0)
(0 -2.93623e-09 0)
(0 -2.32635e-09 0)
(0 -1.83184e-09 0)
(0 -1.43372e-09 0)
(0 -1.11543e-09 0)
(0 -8.62663e-10 0)
(0 -6.63265e-10 0)
(0 -5.06982e-10 0)
(0 -3.85271e-10 0)
(0 -2.91077e-10 0)
(0 -2.18627e-10 0)
(0 -1.63242e-10 0)
(0 -1.21164e-10 0)
(0 -8.9389e-11 0)
(0 -6.55367e-11 0)
(0 -4.77451e-11 0)
(0 -3.45558e-11 0)
(0 -2.48365e-11 0)
(0 -1.77232e-11 0)
(0 -1.25535e-11 0)
(0 -8.81831e-12 0)
(0 -6.13995e-12 0)
(0 -4.23172e-12 0)
(0 -2.88503e-12 0)
(0 -1.94312e-12 0)
(0 -1.29025e-12 0)
(0 -8.40509e-13 0)
(0 -5.35656e-13 0)
(0 -3.32115e-13 0)
(0 -1.98546e-13 0)
(0 -1.13144e-13 0)
(0 -5.68782e-14 0)
(0 -2.39669e-14 0)
(0 -4.08068e-15 0)
(0 4.82382e-15 0)
(0 9.77916e-15 0)
(0 1.28326e-14 0)
(0 1.29365e-14 0)
(0 1.02516e-14 0)
(0 9.45111e-15 0)
(0 7.23895e-15 0)
(0 6.71883e-15 0)
(0 5.04367e-15 0)
(0 5.38423e-15 0)
(0 4.91316e-15 0)
(0 3.77213e-15 0)
(0 4.98244e-15 0)
(0 4.09515e-15 0)
(0 5.19935e-15 0)
(0 4.31869e-15 0)
(0 2.78123e-15 0)
(0 2.65155e-15 0)
(0 2.09526e-15 0)
(0 2.19318e-15 0)
(0 2.65595e-15 0)
(0 2.35218e-15 0)
(0 1.93326e-15 0)
(0 1.26309e-15 0)
(0 4.02048e-17 0)
(0 3.0169e-16 0)
(0 -5.78639e-16 0)
(0 6.25345e-17 0)
(0 -3.47306e-16 0)
(0 1.09464e-15 0)
(0 1.06431e-15 0)
(0 1.48581e-15 0)
(0 2.76812e-15 0)
(0 2.96743e-15 0)
(0 2.79733e-15 0)
(0 2.2963e-15 0)
(0 2.07453e-15 0)
(0 3.04489e-15 0)
(0 1.80669e-15 0)
(0 1.82923e-15 0)
(0 2.70711e-15 0)
(0 1.35324e-15 0)
(0 1.99645e-15 0)
(0 2.19536e-15 0)
(0 6.18088e-16 0)
(0 3.56823e-16 0)
(0 -1.2075e-15 0)
(0 -1.73587e-15 0)
(0 -2.57773e-15 0)
(0 -1.90349e-15 0)
(0 -1.1168e-15 0)
(0 -2.24151e-15 0)
(0 -2.57678e-15 0)
(0 -2.33033e-15 0)
(0 -2.31457e-15 0)
(0 -1.80261e-15 0)
(0 -2.78652e-15 0)
(0 -2.45509e-15 0)
(0 -2.08054e-15 0)
(0 -1.73729e-15 0)
(0 -1.69009e-15 0)
(0 -2.12028e-15 0)
(0 -2.33457e-15 0)
(0 -2.52839e-15 0)
(0 -1.77385e-15 0)
(0 -8.49219e-16 0)
(0 -2.01353e-15 0)
(0 -2.24469e-15 0)
(0 -2.00546e-15 0)
(0 -2.71928e-15 0)
(0 -2.32068e-15 0)
(0 -4.13174e-15 0)
(0 -3.827e-15 0)
(0 -4.43212e-15 0)
(0 -3.52117e-15 0)
(0 -3.00047e-15 0)
(0 -2.44645e-15 0)
(0 -1.12914e-15 0)
(0 -1.42158e-15 0)
(0 -1.91223e-15 0)
(0 -1.73467e-15 0)
(0 -6.92111e-16 0)
(0 -9.98809e-16 0)
(0 -7.41337e-16 0)
(0 2.49188e-17 0)
(0 7.3505e-16 0)
(0 -6.32572e-16 0)
(0 -1.0189e-15 0)
(0 -9.1072e-16 0)
(0 -4.80858e-16 0)
(0 5.79108e-16 0)
(0 2.02342e-16 0)
(0 3.6585e-16 0)
(0 -1.26982e-15 0)
(0 -1.65848e-15 0)
(0 -1.92817e-15 0)
(0 -3.34789e-15 0)
(0 -2.11759e-15 0)
(0 -2.82333e-15 0)
(0 -2.46743e-15 0)
(0 -1.43604e-15 0)
(0 -1.89735e-15 0)
(0 -1.40943e-15 0)
(0 -2.01621e-15 0)
(0 -1.39252e-15 0)
(0 -8.96388e-16 0)
(0 -1.81981e-15 0)
(0 -1.67569e-15 0)
(0 -1.23686e-15 0)
(0 -7.75259e-16 0)
(0 5.53611e-16 0)
(0 -4.04153e-16 0)
(0 2.51354e-16 0)
(0 -1.1002e-15 0)
(0 -1.26598e-15 0)
(0 -3.15929e-16 0)
(0 -3.02528e-16 0)
(0 4.29844e-16 0)
(0 -4.26688e-16 0)
(0 -2.20756e-15 0)
(0 -1.11022e-15 0)
(0 -2.06615e-15 0)
(0 -1.29037e-15 0)
(0 -9.49969e-16 0)
(0 -3.06193e-16 0)
(0 -3.72775e-17 0)
(0 -4.46172e-16 0)
(0 -4.25128e-16 0)
(0 -1.96515e-15 0)
(0 -2.77751e-15 0)
(0 -1.86138e-15 0)
(0 -2.56747e-15 0)
(0 -1.94967e-15 0)
(0 -2.00989e-15 0)
(0 -2.74124e-15 0)
(0 -2.45004e-15 0)
(0 -3.30404e-15 0)
(0 -4.00445e-15 0)
(0 -3.45034e-15 0)
(0 -2.8724e-15 0)
(0 -1.44084e-15 0)
(0 -8.02005e-16 0)
(0 -3.09998e-16 0)
(0 -1.34946e-15 0)
(0 -2.68214e-15 0)
(0 -2.62469e-15 0)
(0 -3.05741e-15 0)
(0 -1.71639e-15 0)
(0 -2.71771e-15 0)
(0 -2.38703e-15 0)
(0 -1.0922e-15 0)
(0 -2.34739e-15 0)
(0 -2.52793e-15 0)
(0 -3.17291e-15 0)
(0 -2.12039e-15 0)
(0 -3.52849e-15 0)
(0 -2.75361e-15 0)
(0 -2.85825e-15 0)
(0 -1.85531e-15 0)
(0 -1.12007e-15 0)
(0 4.37403e-16 0)
(0 -7.93063e-16 0)
(0 -2.91411e-16 0)
(0 -1.53603e-15 0)
(0 -1.54354e-15 0)
(0 -2.14356e-15 0)
(0 -2.51009e-15 0)
(0 -1.47144e-15 0)
(0 -8.55252e-16 0)
(0 -1.3483e-15 0)
(0 -8.02026e-16 0)
(0 -2.79255e-15 0)
(0 -1.74837e-15 0)
(0 -2.32618e-15 0)
(0 -2.4956e-15 0)
(0 -1.0475e-15 0)
(0 -5.75541e-16 0)
(0 -2.66763e-16 0)
(0 -4.21784e-16 0)
(0 -1.91383e-16 0)
(0 -3.48461e-16 0)
(0 -9.22925e-17 0)
(0 -7.53065e-16 0)
(0 -7.8514e-16 0)
(0 -1.4591e-15 0)
(0 -1.02008e-15 0)
(0 -1.62645e-15 0)
(0 -1.45497e-15 0)
(0 -2.1278e-15 0)
(0 -1.19741e-15 0)
(0 -7.6842e-17 0)
(0 -1.0592e-15 0)
(0 -9.1396e-16 0)
(0 -2.32926e-15 0)
(0 -2.20995e-15 0)
(0 -6.38763e-16 0)
(0 -1.57284e-15 0)
(0 2.41457e-16 0)
(0 -8.52306e-16 0)
(0 -2.86452e-15 0)
(0 -3.1837e-15 0)
(0 -2.41652e-15 0)
(0 -1.6959e-15 0)
(0 -1.43733e-15 0)
(0 1.6221e-16 0)
(0 1.07865e-15 0)
(0 1.61361e-15 0)
(0 2.5383e-16 0)
(0 -9.88284e-16 0)
(0 -1.34093e-15 0)
(0 -1.25269e-15 0)
(0 -1.6999e-15 0)
(0 3.66329e-16 0)
(0 -1.04717e-15 0)
(0 -2.30722e-15 0)
(0 -3.0872e-15 0)
(0 -4.16629e-15 0)
(0 -3.87809e-15 0)
(0 -3.77886e-15 0)
(0 -4.21365e-15 0)
(0 -1.60531e-15 0)
(0 -1.56667e-15 0)
(0 -1.56145e-15 0)
(0 -4.33496e-15 0)
(0 -5.21954e-15 0)
(0 -5.16815e-15 0)
(0 -4.44513e-15 0)
(0 -2.35692e-15 0)
(0 -2.31408e-15 0)
(0 -1.62701e-15 0)
(0 -7.2833e-17 0)
(0 7.97921e-16 0)
(0 4.25222e-17 0)
(0 -1.02434e-15 0)
(0 -9.11283e-16 0)
(0 -7.55445e-16 0)
(0 -1.68058e-15 0)
(0 -3.60307e-16 0)
(0 -1.48673e-15 0)
(0 -1.18097e-15 0)
(0 -3.21386e-15 0)
(0 -2.6344e-15 0)
(0 -3.08557e-15 0)
(0 -2.68022e-15 0)
(0 -1.8901e-15 0)
(0 -1.15934e-16 0)
(0 7.08062e-16 0)
(0 3.85083e-16 0)
(0 -2.35227e-16 0)
(0 -1.9116e-15 0)
(0 -1.21326e-15 0)
(0 -1.62761e-15 0)
(0 -1.5494e-15 0)
(0 -1.8754e-15 0)
(0 -4.81784e-17 0)
(0 2.7239e-16 0)
(0 -3.96848e-16 0)
(0 -1.76361e-15 0)
(0 -2.26801e-15 0)
(0 -3.52453e-15 0)
(0 -1.89842e-15 0)
(0 -2.08914e-15 0)
(0 3.28387e-16 0)
(0 -2.14168e-15 0)
(0 -2.19198e-15 0)
(0 -2.07039e-15 0)
(0 -5.67373e-16 0)
(0 -1.42384e-15 0)
(0 -1.88586e-15 0)
(0 -1.59224e-15 0)
(0 3.23068e-16 0)
(0 -2.03009e-16 0)
(0 -5.68129e-16 0)
(0 -1.14909e-15 0)
(0 -2.04983e-15 0)
(0 -1.44958e-15 0)
(0 -1.89467e-15 0)
(0 -1.54116e-15 0)
(0 -1.72491e-16 0)
(0 1.5868e-15 0)
(0 2.91974e-15 0)
(0 2.67406e-15 0)
(0 1.71093e-15 0)
(0 2.25543e-15 0)
(0 1.36481e-15 0)
(0 3.5472e-16 0)
(0 2.13473e-16 0)
(0 -4.51609e-16 0)
(0 -1.43352e-15 0)
(0 -2.33101e-15 0)
(0 -3.43675e-15 0)
(0 -4.67545e-15 0)
(0 -3.9838e-15 0)
(0 -2.23099e-15 0)
(0 -1.7792e-15 0)
(0 -7.50637e-16 0)
(0 -7.76774e-16 0)
(0 -1.00724e-15 0)
(0 -1.87853e-15 0)
(0 -2.43644e-15 0)
(0 -2.50815e-16 0)
(0 4.06896e-16 0)
(0 4.53417e-16 0)
(0 3.13498e-16 0)
(0 2.79077e-16 0)
(0 4.14238e-16 0)
(0 8.86921e-18 0)
(0 -1.75093e-15 0)
(0 -1.35233e-15 0)
(0 -1.72599e-16 0)
(0 1.98586e-16 0)
(0 -6.7652e-18 0)
(0 -7.88412e-16 0)
(0 -7.13965e-16 0)
(0 -7.55694e-16 0)
(0 -2.65877e-17 0)
(0 9.18652e-16 0)
(0 2.92353e-16 0)
(0 5.11048e-17 0)
(0 3.11156e-16 0)
(0 3.00705e-17 0)
(0 9.24141e-16 0)
(0 -1.55508e-16 0)
(0 -5.42068e-16 0)
(0 -1.02298e-15 0)
(0 -2.15633e-15 0)
(0 -6.14966e-16 0)
(0 6.11847e-16 0)
(0 1.47525e-15 0)
(0 1.74629e-15 0)
(0 2.88456e-15 0)
(0 2.49635e-15 0)
(0 1.11427e-15 0)
(0 -1.501e-16 0)
(0 -1.0283e-16 0)
(0 -7.82907e-16 0)
(0 -1.38378e-16 0)
(0 -6.36178e-16 0)
(0 -3.346e-16 0)
(0 -6.87065e-16 0)
(0 -5.66167e-16 0)
(0 5.84801e-16 0)
(0 1.04381e-15 0)
(0 1.3347e-15 0)
(0 8.61998e-16 0)
(0 -1.60461e-17 0)
(0 -1.86914e-17 0)
(0 -1.55483e-15 0)
(0 -1.72413e-15 0)
(0 -1.68354e-15 0)
(0 -1.1925e-15 0)
(0 -4.93645e-16 0)
(0 8.27082e-16 0)
(0 1.50459e-15 0)
(0 1.29462e-15 0)
(0 1.42423e-15 0)
(0 1.95262e-15 0)
(0 -7.97736e-16 0)
(0 -9.00748e-17 0)
(0 4.43396e-16 0)
(0 -3.34395e-17 0)
(0 8.9766e-16 0)
(0 -6.16022e-16 0)
(0 -1.81337e-15 0)
(0 -1.61156e-15 0)
(0 -9.98063e-16 0)
(0 6.4213e-16 0)
(0 1.54101e-15 0)
(0 1.34873e-15 0)
(0 1.05204e-15 0)
(0 -4.66641e-16 0)
(0 -7.16568e-16 0)
(0 -1.76906e-15 0)
(0 -1.93875e-15 0)
(0 -1.86846e-15 0)
(0 -1.96598e-15 0)
(0 -2.01614e-15 0)
(0 -1.05047e-15 0)
(0 -7.80523e-16 0)
(0 -1.8142e-15 0)
(0 1.3243e-15 0)
(0 2.64999e-15 0)
(0 1.9407e-15 0)
(0 1.55077e-15 0)
(0 3.20331e-15 0)
(0 2.1813e-15 0)
(0 1.51917e-15 0)
(0 -4.70178e-16 0)
(0 -2.17188e-15 0)
(0 -1.79516e-15 0)
(0 -7.7204e-16 0)
(0 1.6074e-16 0)
(0 -2.04223e-16 0)
(0 -3.24217e-16 0)
(0 -3.38105e-16 0)
(0 -1.31446e-15 0)
(0 -2.99867e-16 0)
(0 -1.52775e-15 0)
(0 -1.73347e-15 0)
(0 -3.12675e-15 0)
(0 -3.28363e-15 0)
(0 -1.56641e-15 0)
(0 -6.40409e-16 0)
(0 -7.55792e-16 0)
(0 -9.98186e-05 0)
(0 -0.000237449 0)
(0 -0.000315164 0)
(0 -0.000340747 0)
(0 -0.000326356 0)
(0 -0.000285988 0)
(0 -0.000232812 0)
(0 -0.000177317 0)
(0 -0.00012656 0)
(0 -8.43217e-05 0)
(0 -5.18095e-05 0)
(0 -2.85223e-05 0)
(0 -1.30408e-05 0)
(0 -3.61973e-06 0)
(0 1.43523e-06 0)
(0 3.57048e-06 0)
(0 3.91501e-06 0)
(0 3.28727e-06 0)
(0 2.2402e-06 0)
(0 1.11893e-06 0)
(0 1.16917e-07 0)
(0 -6.76234e-07 0)
(0 -1.23724e-06 0)
(0 -1.58153e-06 0)
(0 -1.74407e-06 0)
(0 -1.76671e-06 0)
(0 -1.69052e-06 0)
(0 -1.55155e-06 0)
(0 -1.37902e-06 0)
(0 -1.19498e-06 0)
(0 -1.01483e-06 0)
(0 -8.48382e-07 0)
(0 -7.01011e-07 0)
(0 -5.74791e-07 0)
(0 -4.69528e-07 0)
(0 -3.83602e-07 0)
(0 -3.14621e-07 0)
(0 -2.59898e-07 0)
(0 -2.16774e-07 0)
(0 -1.82821e-07 0)
(0 -1.55942e-07 0)
(0 -1.34409e-07 0)
(0 -1.16857e-07 0)
(0 -1.02243e-07 0)
(0 -8.97995e-08 0)
(0 -7.89832e-08 0)
(0 -6.94202e-08 0)
(0 -6.0863e-08 0)
(0 -5.31527e-08 0)
(0 -4.61888e-08 0)
(0 -3.99071e-08 0)
(0 -3.42636e-08 0)
(0 -2.92235e-08 0)
(0 -2.47547e-08 0)
(0 -2.0824e-08 0)
(0 -1.73957e-08 0)
(0 -1.44312e-08 0)
(0 -1.18898e-08 0)
(0 -9.72965e-09 0)
(0 -7.9089e-09 0)
(0 -6.38675e-09 0)
(0 -5.12432e-09 0)
(0 -4.0854e-09 0)