/*--------------------------------*- C++ -*----------------------------------*\
| =========                 |                                                 |
| \\      /  F ield         | OpenFOAM: The Open Source CFD Toolbox           |
|  \\    /   O peration     | Version:  4.1                                   |
|   \\  /    A nd           | Web:      www.OpenFOAM.org                      |
|    \\/     M anipulation  |                                                 |
\*---------------------------------------------------------------------------*/
FoamFile
{
    version     2.0;
    format      ascii;
    class       volVectorField;
    location    "0.25";
    object      U;
}
// * * * * * * * * * * * * * * * * * * * * * * * * * * * * * * * * * * * * * //

dimensions      [0 1 -1 0 0 0 0];

internalField   nonuniform List<vector> 
20400
(
(0 -1.6485e-06 0)
(0 -3.6751e-06 0)
(0 -4.92261e-06 0)
(0 -5.4228e-06 0)
(0 -5.34129e-06 0)
(0 -4.86033e-06 0)
(0 -4.15731e-06 0)
(0 -3.37913e-06 0)
(0 -2.63013e-06 0)
(0 -1.97189e-06 0)
(0 -1.43076e-06 0)
(0 -1.00861e-06 0)
(0 -6.9306e-07 0)
(0 -4.65491e-07 0)
(0 -3.06312e-07 0)
(0 -1.97876e-07 0)
(0 -1.25699e-07 0)
(0 -7.863e-08 0)
(0 -4.84933e-08 0)
(0 -2.95149e-08 0)
(0 -1.77429e-08 0)
(0 -1.05423e-08 0)
(0 -6.19469e-09 0)
(0 -3.60157e-09 0)
(0 -2.0727e-09 0)
(0 -1.18116e-09 0)
(0 -6.66728e-10 0)
(0 -3.72898e-10 0)
(0 -2.06706e-10 0)
(0 -1.13595e-10 0)
(0 -6.1904e-11 0)
(0 -3.34622e-11 0)
(0 -1.79471e-11 0)
(0 -9.55332e-12 0)
(0 -5.04903e-12 0)
(0 -2.64959e-12 0)
(0 -1.3819e-12 0)
(0 -7.1664e-13 0)
(0 -3.70463e-13 0)
(0 -1.89423e-13 0)
(0 -9.71507e-14 0)
(0 -5.01521e-14 0)
(0 -2.47417e-14 0)
(0 -1.24143e-14 0)
(0 -5.70162e-15 0)
(0 -3.52162e-15 0)
(0 -1.85081e-15 0)
(0 -2.38326e-16 0)
(0 -5.85882e-16 0)
(0 -1.92103e-16 0)
(0 -1.76983e-16 0)
(0 -4.21258e-16 0)
(0 -2.91409e-16 0)
(0 -1.82678e-16 0)
(0 3.96602e-16 0)
(0 4.07978e-16 0)
(0 1.58381e-16 0)
(0 4.38801e-16 0)
(0 4.67402e-17 0)
(0 4.12771e-16 0)
(0 1.26966e-15 0)
(0 3.3982e-16 0)
(0 2.65321e-17 0)
(0 -1.17281e-16 0)
(0 -4.74925e-17 0)
(0 1.76126e-16 0)
(0 -5.69077e-17 0)
(0 7.04384e-16 0)
(0 3.54324e-16 0)
(0 8.51461e-16 0)
(0 -2.73254e-16 0)
(0 2.91761e-16 0)
(0 6.41137e-16 0)
(0 1.71616e-16 0)
(0 -1.01305e-16 0)
(0 2.54188e-16 0)
(0 -9.51147e-16 0)
(0 4.08754e-17 0)
(0 2.58796e-16 0)
(0 4.11377e-16 0)
(0 1.05468e-15 0)
(0 -1.35301e-16 0)
(0 -7.41528e-16 0)
(0 -3.95371e-16 0)
(0 -2.46958e-16 0)
(0 -4.45285e-16 0)
(0 -7.36574e-16 0)
(0 -1.07447e-16 0)
(0 2.70728e-16 0)
(0 8.81542e-17 0)
(0 2.80558e-16 0)
(0 1.1709e-16 0)
(0 3.62844e-16 0)
(0 -8.73252e-17 0)
(0 -3.74061e-16 0)
(0 1.10598e-16 0)
(0 -7.24003e-17 0)
(0 -1.18312e-16 0)
(0 -1.56056e-16 0)
(0 9.85323e-17 0)
(0 3.69467e-16 0)
(0 8.77185e-17 0)
(0 2.16382e-16 0)
(0 1.32782e-16 0)
(0 1.20288e-16 0)
(0 -6.32593e-16 0)
(0 -5.60996e-17 0)
(0 2.74095e-16 0)
(0 6.28031e-16 0)
(0 5.61355e-16 0)
(0 5.51354e-16 0)
(0 5.00833e-16 0)
(0 2.01804e-16 0)
(0 3.59606e-16 0)
(0 1.24678e-15 0)
(0 2.7128e-16 0)
(0 8.53131e-16 0)
(0 3.42527e-16 0)
(0 2.92733e-16 0)
(0 1.16011e-16 0)
(0 8.90914e-17 0)
(0 -2.28488e-16 0)
(0 5.42857e-16 0)
(0 8.55634e-16 0)
(0 1.70449e-15 0)
(0 9.49081e-16 0)
(0 1.51754e-15 0)
(0 -2.43629e-16 0)
(0 -2.57575e-16 0)
(0 2.11997e-16 0)
(0 1.12606e-16 0)
(0 3.05384e-16 0)
(0 1.05244e-15 0)
(0 6.42037e-16 0)
(0 -1.03125e-16 0)
(0 3.67313e-16 0)
(0 4.78372e-16 0)
(0 3.37185e-18 0)
(0 -2.56015e-16 0)
(0 2.96383e-16 0)
(0 -2.23305e-17 0)
(0 3.93485e-16 0)
(0 4.65869e-16 0)
(0 6.06743e-17 0)
(0 1.65666e-15 0)
(0 7.75918e-16 0)
(0 4.60316e-16 0)
(0 3.2297e-16 0)
(0 2.64739e-16 0)
(0 -5.32007e-17 0)
(0 1.33171e-17 0)
(0 1.15988e-16 0)
(0 -4.76926e-16 0)
(0 -2.43866e-16 0)
(0 8.54038e-17 0)
(0 -3.42262e-16 0)
(0 -1.73611e-16 0)
(0 -9.48682e-17 0)
(0 2.328e-16 0)
(0 2.00481e-16 0)
(0 -2.70008e-16 0)
(0 -7.10003e-18 0)
(0 -3.66131e-16 0)
(0 1.88557e-16 0)
(0 -2.28462e-18 0)
(0 7.82505e-17 0)
(0 3.97253e-16 0)
(0 -7.98237e-17 0)
(0 3.63262e-16 0)
(0 5.49692e-16 0)
(0 -7.53598e-17 0)
(0 4.69893e-16 0)
(0 3.59787e-16 0)
(0 1.13841e-16 0)
(0 -1.40152e-16 0)
(0 2.60031e-16 0)
(0 8.80092e-16 0)
(0 6.63009e-16 0)
(0 -1.51083e-17 0)
(0 3.94777e-16 0)
(0 2.92411e-16 0)
(0 7.15512e-16 0)
(0 5.27245e-16 0)
(0 -3.41661e-17 0)
(0 -1.49769e-16 0)
(0 -2.46815e-16 0)
(0 4.07695e-16 0)
(0 4.72846e-17 0)
(0 6.28592e-16 0)
(0 1.32438e-16 0)
(0 -6.61943e-16 0)
(0 -3.85767e-16 0)
(0 -2.88126e-16 0)
(0 -2.41877e-17 0)
(0 3.38526e-16 0)
(0 2.22787e-16 0)
(0 3.03588e-16 0)
(0 5.28148e-17 0)
(0 5.41439e-16 0)
(0 2.37748e-16 0)
(0 4.49427e-16 0)
(0 5.71421e-16 0)
(0 8.48383e-16 0)
(0 1.11425e-15 0)
(0 6.11848e-16 0)
(0 6.19443e-16 0)
(0 -2.68691e-17 0)
(0 -2.23531e-16 0)
(0 3.61777e-16 0)
(0 4.30388e-16 0)
(0 5.27199e-17 0)
(0 -1.42995e-16 0)
(0 7.36105e-17 0)
(0 -7.47169e-17 0)
(0 3.7114e-16 0)
(0 9.92125e-17 0)
(0 2.72034e-16 0)
(0 4.90026e-16 0)
(0 7.16224e-16 0)
(0 2.17302e-16 0)
(0 7.43199e-16 0)
(0 5.72471e-16 0)
(0 1.0477e-15 0)
(0 5.12577e-16 0)
(0 9.07998e-16 0)
(0 1.12126e-15 0)
(0 7.54111e-16 0)
(0 9.74855e-16 0)
(0 6.22587e-16 0)
(0 3.38359e-16 0)
(0 4.26687e-16 0)
(0 4.66502e-16 0)
(0 -2.72173e-16 0)
(0 -4.6e-16 0)
(0 -1.40529e-15 0)
(0 -1.41197e-15 0)
(0 -1.01832e-15 0)
(0 -1.00179e-15 0)
(0 -4.1397e-16 0)
(0 -9.02002e-16 0)
(0 -5.52426e-16 0)
(0 -6.10526e-16 0)
(0 -5.76423e-16 0)
(0 1.04367e-16 0)
(0 1.34547e-16 0)
(0 3.24712e-16 0)
(0 -2.71211e-16 0)
(0 -2.09869e-16 0)
(0 2.65252e-16 0)
(0 1.36444e-16 0)
(0 5.05002e-16 0)
(0 2.82627e-16 0)
(0 4.90447e-16 0)
(0 4.88458e-16 0)
(0 6.45635e-16 0)
(0 6.63717e-16 0)
(0 3.16382e-16 0)
(0 3.82993e-16 0)
(0 2.16592e-16 0)
(0 2.53145e-16 0)
(0 1.95058e-16 0)
(0 3.23055e-16 0)
(0 1.15158e-16 0)
(0 7.58204e-16 0)
(0 1.07515e-15 0)
(0 6.32516e-16 0)
(0 5.75184e-16 0)
(0 3.9511e-16 0)
(0 8.46826e-16 0)
(0 3.76151e-16 0)
(0 3.83929e-16 0)
(0 6.62099e-16 0)
(0 4.35463e-16 0)
(0 3.19654e-16 0)
(0 9.2221e-17 0)
(0 5.2964e-16 0)
(0 3.84422e-16 0)
(0 1.68698e-16 0)
(0 2.98034e-16 0)
(0 3.74887e-16 0)
(0 -7.19363e-17 0)
(0 -9.13398e-17 0)
(0 5.59711e-16 0)
(0 2.54594e-16 0)
(0 1.07416e-16 0)
(0 4.39569e-16 0)
(0 6.98351e-16 0)
(0 9.28381e-16 0)
(0 1.42229e-15 0)
(0 1.56881e-15 0)
(0 1.38019e-15 0)
(0 7.34747e-16 0)
(0 5.56263e-16 0)
(0 1.14808e-15 0)
(0 1.26137e-15 0)
(0 1.01666e-15 0)
(0 1.10697e-15 0)
(0 1.18554e-15 0)
(0 8.17154e-16 0)
(0 8.09727e-16 0)
(0 2.32716e-16 0)
(0 5.92547e-17 0)
(0 -1.32277e-17 0)
(0 6.30317e-17 0)
(0 6.48413e-16 0)
(0 1.0199e-15 0)
(0 6.04614e-16 0)
(0 1.19856e-16 0)
(0 9.50784e-16 0)
(0 9.84952e-16 0)
(0 6.06813e-16 0)
(0 3.94585e-16 0)
(0 6.62124e-16 0)
(0 2.47419e-16 0)
(0 1.27652e-16 0)
(0 8.59008e-17 0)
(0 -2.92531e-16 0)
(0 3.61023e-16 0)
(0 2.65783e-16 0)
(0 1.04165e-16 0)
(0 -1.86759e-17 0)
(0 2.9336e-16 0)
(0 3.44499e-16 0)
(0 2.7147e-16 0)
(0 4.55432e-16 0)
(0 9.54339e-17 0)
(0 1.17742e-16 0)
(0 2.96354e-16 0)
(0 7.37935e-17 0)
(0 2.52987e-17 0)
(0 2.77957e-16 0)
(0 5.63487e-16 0)
(0 1.32224e-15 0)
(0 8.24172e-16 0)
(0 1.38103e-16 0)
(0 7.56336e-16 0)
(0 2.66998e-16 0)
(0 5.7112e-16 0)
(0 -3.32396e-16 0)
(0 -4.19752e-16 0)
(0 3.0001e-16 0)
(0 9.09091e-16 0)
(0 1.07435e-15 0)
(0 4.25269e-16 0)
(0 -2.94006e-16 0)
(0 2.58739e-16 0)
(0 -1.4963e-16 0)
(0 1.85273e-17 0)
(0 -1.20982e-16 0)
(0 3.61241e-16 0)
(0 2.82438e-16 0)
(0 3.34824e-16 0)
(0 3.05016e-16 0)
(0 6.67082e-17 0)
(0 -2.0523e-16 0)
(0 1.00931e-16 0)
(0 3.24989e-16 0)
(0 9.21093e-16 0)
(0 4.81042e-16 0)
(0 2.79552e-16 0)
(0 -2.48039e-16 0)
(0 3.32798e-16 0)
(0 5.85723e-16 0)
(0 2.44135e-16 0)
(0 8.32226e-16 0)
(0 6.42844e-16 0)
(0 1.06591e-15 0)
(0 6.18181e-16 0)
(0 8.13181e-16 0)
(0 4.47939e-16 0)
(0 3.91118e-16 0)
(0 1.6193e-16 0)
(0 1.81636e-16 0)
(0 5.34819e-16 0)
(0 9.98532e-16 0)
(0 5.90743e-16 0)
(0 7.95875e-16 0)
(0 5.36234e-16 0)
(0 5.57114e-16 0)
(0 9.13952e-16 0)
(0 1.17504e-15 0)
(0 3.68296e-16 0)
(0 5.94063e-16 0)
(0 1.05537e-16 0)
(0 2.07631e-16 0)
(0 3.81153e-16 0)
(0 5.77338e-16 0)
(0 6.40112e-16 0)
(0 6.02644e-16 0)
(0 7.0418e-16 0)
(0 4.52074e-16 0)
(0 5.15364e-16 0)
(0 8.87681e-16 0)
(0 1.22819e-15 0)
(0 1.03681e-15 0)
(0 1.05151e-15 0)
(0 9.3867e-16 0)
(0 7.21313e-16 0)
(0 1.0536e-15 0)
(0 5.53547e-16 0)
(0 1.84829e-16 0)
(0 8.94498e-17 0)
(0 1.20814e-16 0)
(0 4.40751e-16 0)
(0 7.20635e-16 0)
(0 7.53108e-16 0)
(0 9.08328e-16 0)
(0 8.18815e-16 0)
(0 3.47594e-16 0)
(0 4.22558e-16 0)
(0 5.97617e-16 0)
(0 2.10388e-16 0)
(0 7.45415e-16 0)
(0 8.71031e-16 0)
(0 8.31501e-16 0)
(0 6.63062e-16 0)
(0 8.06071e-16 0)
(0 6.67282e-16 0)
(0 5.81223e-16 0)
(0 5.18187e-17 0)
(0 5.86153e-16 0)
(0 6.41741e-16 0)
(0 6.18226e-17 0)
(0 7.91324e-16 0)
(0 1.14746e-15 0)
(0 3.62286e-16 0)
(0 7.47058e-17 0)
(0 -1.58161e-16 0)
(0 2.58014e-16 0)
(0 1.11384e-15 0)
(0 3.19779e-16 0)
(0 -1.93107e-16 0)
(0 -2.38337e-16 0)
(0 -4.06525e-16 0)
(0 -9.42985e-16 0)
(0 -6.85025e-16 0)
(0 -4.82327e-16 0)
(0 -7.83923e-16 0)
(0 -3.39493e-16 0)
(0 -1.83217e-16 0)
(0 -2.14758e-17 0)
(0 2.02288e-16 0)
(0 9.3566e-16 0)
(0 6.45198e-16 0)
(0 1.36314e-15 0)
(0 8.56443e-16 0)
(0 6.65311e-16 0)
(0 7.41142e-16 0)
(0 1.64579e-15 0)
(0 1.11675e-15 0)
(0 9.87511e-16 0)
(0 1.75775e-15 0)
(0 1.65895e-15 0)
(0 8.19823e-16 0)
(0 1.01361e-15 0)
(0 6.54942e-16 0)
(0 5.98347e-16 0)
(0 -2.50222e-17 0)
(0 1.83365e-16 0)
(0 1.60835e-16 0)
(0 1.96643e-16 0)
(0 2.58618e-16 0)
(0 3.42415e-17 0)
(0 5.10312e-16 0)
(0 5.89949e-16 0)
(0 8.57563e-17 0)
(0 1.41636e-15 0)
(0 2.33135e-16 0)
(0 1.85129e-16 0)
(0 4.50777e-17 0)
(0 4.23132e-16 0)
(0 7.10714e-16 0)
(0 1.20474e-15 0)
(0 1.09574e-15 0)
(0 1.55044e-15 0)
(0 1.75284e-15 0)
(0 6.89738e-16 0)
(0 1.15942e-15 0)
(0 8.85467e-16 0)
(0 8.57351e-16 0)
(0 1.06276e-15 0)
(0 8.4152e-16 0)
(0 5.12508e-16 0)
(0 2.84661e-16 0)
(0 1.17235e-16 0)
(0 1.06433e-15 0)
(0 4.82366e-16 0)
(0 8.80582e-16 0)
(0 8.29613e-16 0)
(0 9.86913e-16 0)
(0 1.46884e-15 0)
(0 1.55627e-15 0)
(0 1.3509e-15 0)
(0 4.69001e-16 0)
(0 -9.73699e-17 0)
(0 -6.32644e-16 0)
(0 -9.31158e-17 0)
(0 -5.35594e-16 0)
(0 9.03346e-16 0)
(0 -1.03203e-16 0)
(0 -4.78606e-06 0)
(0 -1.11626e-05 0)
(0 -1.49082e-05 0)
(0 -1.63888e-05 0)
(0 -1.61086e-05 0)
(0 -1.4629e-05 0)
(0 -1.24892e-05 0)
(0 -1.01331e-05 0)
(0 -7.87396e-06 0)
(0 -5.89442e-06 0)
(0 -4.27109e-06 0)
(0 -3.00733e-06 0)
(0 -2.06435e-06 0)
(0 -1.3853e-06 0)
(0 -9.10918e-07 0)
(0 -5.88089e-07 0)
(0 -3.73386e-07 0)
(0 -2.3347e-07 0)
(0 -1.43937e-07 0)
(0 -8.75793e-08 0)
(0 -5.26352e-08 0)
(0 -3.12672e-08 0)
(0 -1.83692e-08 0)
(0 -1.06779e-08 0)
(0 -6.14411e-09 0)
(0 -3.50078e-09 0)
(0 -1.9758e-09 0)
(0 -1.10491e-09 0)
(0 -6.12395e-10 0)
(0 -3.36498e-10 0)
(0 -1.83356e-10 0)
(0 -9.91014e-11 0)
(0 -5.31463e-11 0)
(0 -2.82885e-11 0)
(0 -1.49485e-11 0)
(0 -7.84426e-12 0)
(0 -4.08987e-12 0)
(0 -2.12004e-12 0)
(0 -1.09353e-12 0)
(0 -5.60411e-13 0)
(0 -2.86964e-13 0)
(0 -1.46109e-13 0)
(0 -7.37705e-14 0)
(0 -3.68084e-14 0)
(0 -1.86674e-14 0)
(0 -1.0592e-14 0)
(0 -4.99749e-15 0)
(0 -2.04064e-15 0)
(0 -1.82213e-15 0)
(0 -4.70828e-16 0)
(0 -3.49343e-16 0)
(0 3.21333e-17 0)
(0 3.93039e-16 0)
(0 4.17342e-16 0)
(0 2.41681e-15 0)
(0 1.29288e-15 0)
(0 9.25919e-16 0)
(0 1.50127e-15 0)
(0 6.21803e-16 0)
(0 1.31687e-15 0)
(0 2.10864e-15 0)
(0 9.09834e-16 0)
(0 1.32079e-16 0)
(0 -5.8468e-16 0)
(0 -4.48632e-16 0)
(0 -2.73618e-16 0)
(0 3.65224e-17 0)
(0 1.10534e-15 0)
(0 5.49798e-16 0)
(0 5.30543e-16 0)
(0 3.66082e-16 0)
(0 5.54177e-16 0)
(0 -2.05213e-16 0)
(0 5.68274e-16 0)
(0 9.17897e-16 0)
(0 2.36577e-16 0)
(0 -8.76175e-16 0)
(0 3.37068e-16 0)
(0 -4.41664e-16 0)
(0 5.15613e-16 0)
(0 4.27225e-16 0)
(0 -4.89816e-16 0)
(0 -1.38256e-15 0)
(0 -7.94402e-16 0)
(0 -6.18748e-16 0)
(0 -1.39845e-15 0)
(0 -2.50172e-15 0)
(0 -6.06199e-16 0)
(0 -3.51965e-16 0)
(0 -4.93709e-16 0)
(0 1.29537e-16 0)
(0 3.38469e-16 0)
(0 3.78752e-17 0)
(0 -7.69065e-16 0)
(0 -2.74199e-16 0)
(0 -1.53542e-16 0)
(0 1.39154e-16 0)
(0 -4.40197e-17 0)
(0 -3.95417e-16 0)
(0 -1.04363e-15 0)
(0 6.60477e-16 0)
(0 -1.87994e-18 0)
(0 1.15936e-15 0)
(0 -9.76931e-17 0)
(0 3.44112e-16 0)
(0 1.73301e-16 0)
(0 -7.40068e-16 0)
(0 6.94867e-16 0)
(0 1.56795e-15 0)
(0 1.49529e-15 0)
(0 1.47176e-15 0)
(0 1.37872e-15 0)
(0 6.98947e-16 0)
(0 -6.55822e-16 0)
(0 7.75755e-16 0)
(0 1.33079e-15 0)
(0 2.42841e-15 0)
(0 1.57263e-15 0)
(0 -4.75575e-17 0)
(0 2.03985e-16 0)
(0 9.72199e-16 0)
(0 4.13386e-16 0)
(0 1.78625e-15 0)
(0 2.3592e-15 0)
(0 2.757e-15 0)
(0 2.37786e-15 0)
(0 2.98878e-15 0)
(0 7.20305e-16 0)
(0 4.52044e-16 0)
(0 6.29446e-16 0)
(0 -2.9739e-17 0)
(0 3.6298e-16 0)
(0 8.84796e-16 0)
(0 1.23288e-15 0)
(0 6.98908e-16 0)
(0 8.29632e-16 0)
(0 1.63642e-15 0)
(0 5.93009e-16 0)
(0 -3.88186e-17 0)
(0 -2.53819e-16 0)
(0 7.33792e-16 0)
(0 7.26309e-16 0)
(0 2.56284e-15 0)
(0 4.58387e-16 0)
(0 1.71414e-15 0)
(0 1.5644e-15 0)
(0 1.83407e-15 0)
(0 7.82198e-16 0)
(0 9.82295e-16 0)
(0 -1.80537e-16 0)
(0 -4.66279e-17 0)
(0 3.52805e-16 0)
(0 -1.20681e-16 0)
(0 -1.13491e-15 0)
(0 -3.92857e-16 0)
(0 -1.16353e-15 0)
(0 -6.88432e-16 0)
(0 1.40867e-16 0)
(0 2.11152e-16 0)
(0 -2.9303e-16 0)
(0 -1.32914e-15 0)
(0 -5.21443e-16 0)
(0 4.04163e-16 0)
(0 7.26928e-16 0)
(0 -9.35397e-17 0)
(0 9.0638e-17 0)
(0 8.1385e-16 0)
(0 6.59709e-16 0)
(0 1.21932e-15 0)
(0 5.32501e-16 0)
(0 9.19549e-16 0)
(0 1.77735e-15 0)
(0 2.00545e-15 0)
(0 1.14114e-15 0)
(0 3.14985e-16 0)
(0 5.77985e-16 0)
(0 1.88422e-15 0)
(0 1.53111e-15 0)
(0 1.71705e-16 0)
(0 1.89633e-16 0)
(0 1.46909e-15 0)
(0 1.02656e-15 0)
(0 1.13303e-15 0)
(0 7.2674e-16 0)
(0 4.04729e-16 0)
(0 -1.36965e-15 0)
(0 8.26797e-16 0)
(0 -3.41427e-16 0)
(0 -2.8067e-16 0)
(0 7.6009e-16 0)
(0 -1.43546e-15 0)
(0 -1.20214e-15 0)
(0 -4.22849e-16 0)
(0 1.27914e-16 0)
(0 5.00319e-16 0)
(0 5.58435e-16 0)
(0 1.36478e-15 0)
(0 2.36383e-16 0)
(0 2.61965e-16 0)
(0 3.47084e-16 0)
(0 1.50215e-15 0)
(0 1.54649e-15 0)
(0 2.88574e-15 0)
(0 2.6671e-15 0)
(0 1.98408e-15 0)
(0 1.86696e-15 0)
(0 7.60397e-16 0)
(0 1.22108e-15 0)
(0 1.39189e-15 0)
(0 1.81783e-15 0)
(0 -6.41908e-16 0)
(0 4.41428e-16 0)
(0 4.34107e-16 0)
(0 2.1609e-16 0)
(0 1.80572e-15 0)
(0 1.40489e-15 0)
(0 1.38924e-15 0)
(0 1.48181e-15 0)
(0 1.35382e-15 0)
(0 1.75878e-15 0)
(0 1.3482e-15 0)
(0 1.57845e-15 0)
(0 2.13035e-15 0)
(0 1.45582e-15 0)
(0 1.58092e-15 0)
(0 1.70507e-15 0)
(0 1.54482e-15 0)
(0 1.95191e-15 0)
(0 1.13178e-15 0)
(0 4.38834e-16 0)
(0 1.38733e-15 0)
(0 6.26097e-16 0)
(0 -6.23501e-16 0)
(0 -7.72634e-16 0)
(0 -1.96677e-15 0)
(0 -3.00942e-15 0)
(0 -3.05163e-15 0)
(0 -2.03006e-15 0)
(0 -5.12178e-16 0)
(0 -2.16594e-15 0)
(0 -1.59336e-15 0)
(0 -1.03544e-15 0)
(0 -1.51568e-15 0)
(0 1.84356e-16 0)
(0 5.2196e-16 0)
(0 1.93475e-15 0)
(0 3.1739e-16 0)
(0 4.31817e-16 0)
(0 7.95387e-16 0)
(0 1.1852e-15 0)
(0 1.56435e-15 0)
(0 1.98266e-15 0)
(0 1.9992e-15 0)
(0 5.34862e-16 0)
(0 4.06803e-16 0)
(0 1.0553e-15 0)
(0 1.47265e-15 0)
(0 1.41404e-15 0)
(0 1.08859e-15 0)
(0 5.48062e-16 0)
(0 6.11553e-16 0)
(0 7.91906e-16 0)
(0 9.77283e-16 0)
(0 2.51843e-15 0)
(0 2.54624e-15 0)
(0 1.33656e-15 0)
(0 1.66959e-15 0)
(0 1.4264e-15 0)
(0 1.7435e-15 0)
(0 1.11624e-15 0)
(0 1.20105e-15 0)
(0 1.74904e-15 0)
(0 1.38568e-15 0)
(0 1.61475e-15 0)
(0 1.39354e-15 0)
(0 1.12741e-15 0)
(0 1.28026e-15 0)
(0 1.21339e-15 0)
(0 1.50826e-15 0)
(0 8.14952e-16 0)
(0 1.48499e-15 0)
(0 1.13496e-15 0)
(0 1.32468e-15 0)
(0 1.31347e-15 0)
(0 1.61606e-16 0)
(0 1.13239e-15 0)
(0 1.81481e-15 0)
(0 2.61546e-15 0)
(0 3.00347e-15 0)
(0 3.22741e-15 0)
(0 2.86001e-15 0)
(0 1.97179e-15 0)
(0 1.46655e-15 0)
(0 2.51353e-15 0)
(0 2.09193e-15 0)
(0 2.23203e-15 0)
(0 3.31608e-15 0)
(0 3.58052e-15 0)
(0 2.54523e-15 0)
(0 1.97292e-15 0)
(0 8.08295e-16 0)
(0 2.80557e-16 0)
(0 6.1381e-16 0)
(0 -3.84474e-17 0)
(0 5.27794e-16 0)
(0 2.14259e-15 0)
(0 1.50257e-15 0)
(0 1.03613e-15 0)
(0 2.23542e-15 0)
(0 1.81756e-15 0)
(0 2.373e-15 0)
(0 9.45273e-16 0)
(0 1.80254e-15 0)
(0 4.50909e-16 0)
(0 7.5941e-16 0)
(0 4.18415e-16 0)
(0 -2.50974e-16 0)
(0 1.11271e-15 0)
(0 5.60929e-16 0)
(0 5.27838e-16 0)
(0 -5.42369e-16 0)
(0 8.2914e-16 0)
(0 7.67575e-16 0)
(0 1.35692e-15 0)
(0 1.63863e-15 0)
(0 8.76592e-16 0)
(0 1.17573e-15 0)
(0 8.63159e-16 0)
(0 1.69194e-16 0)
(0 -2.10132e-16 0)
(0 5.00723e-16 0)
(0 1.55207e-15 0)
(0 2.42297e-15 0)
(0 2.57683e-15 0)
(0 1.63957e-15 0)
(0 1.49982e-15 0)
(0 8.0704e-16 0)
(0 1.16339e-15 0)
(0 -7.64505e-16 0)
(0 -7.65845e-16 0)
(0 8.01461e-16 0)
(0 1.95694e-15 0)
(0 2.3824e-15 0)
(0 1.09524e-15 0)
(0 3.9876e-16 0)
(0 -1.71617e-16 0)
(0 -4.30405e-16 0)
(0 1.4857e-16 0)
(0 9.64565e-17 0)
(0 1.7649e-15 0)
(0 8.99345e-16 0)
(0 1.27683e-15 0)
(0 8.55469e-16 0)
(0 1.62059e-17 0)
(0 3.85313e-16 0)
(0 2.60749e-16 0)
(0 1.27335e-15 0)
(0 1.79202e-15 0)
(0 1.48183e-15 0)
(0 1.59967e-15 0)
(0 5.79104e-18 0)
(0 1.08832e-15 0)
(0 2.9008e-15 0)
(0 1.39656e-15 0)
(0 1.50571e-15 0)
(0 1.66592e-15 0)
(0 1.90953e-15 0)
(0 2.51882e-15 0)
(0 2.36714e-15 0)
(0 1.24463e-15 0)
(0 4.29826e-16 0)
(0 7.64363e-16 0)
(0 1.42358e-15 0)
(0 1.35182e-15 0)
(0 2.31168e-15 0)
(0 1.35884e-15 0)
(0 2.58908e-15 0)
(0 1.25705e-15 0)
(0 1.89923e-15 0)
(0 2.38831e-15 0)
(0 3.31706e-15 0)
(0 6.38671e-16 0)
(0 2.67591e-16 0)
(0 2.22789e-17 0)
(0 2.68235e-16 0)
(0 1.64522e-15 0)
(0 1.2041e-15 0)
(0 2.29432e-15 0)
(0 1.64089e-15 0)
(0 3.11065e-15 0)
(0 2.23761e-15 0)
(0 2.12513e-15 0)
(0 3.05923e-15 0)
(0 3.90727e-15 0)
(0 3.10976e-15 0)
(0 3.17976e-15 0)
(0 2.12159e-15 0)
(0 1.87941e-15 0)
(0 2.11436e-15 0)
(0 1.02438e-15 0)
(0 4.20177e-16 0)
(0 1.61344e-15 0)
(0 1.26201e-16 0)
(0 1.54944e-15 0)
(0 2.0965e-15 0)
(0 3.12071e-15 0)
(0 2.79517e-15 0)
(0 1.0669e-15 0)
(0 1.0887e-15 0)
(0 1.19535e-15 0)
(0 2.56145e-15 0)
(0 2.0674e-15 0)
(0 2.33643e-15 0)
(0 3.06639e-15 0)
(0 2.40617e-15 0)
(0 1.33771e-15 0)
(0 2.20489e-15 0)
(0 1.82459e-15 0)
(0 1.14557e-15 0)
(0 7.52229e-16 0)
(0 1.72412e-15 0)
(0 2.17686e-15 0)
(0 2.77561e-15 0)
(0 2.4446e-15 0)
(0 1.91526e-15 0)
(0 1.07714e-15 0)
(0 4.10278e-16 0)
(0 1.49651e-15 0)
(0 4.07786e-16 0)
(0 7.03493e-16 0)
(0 1.01617e-15 0)
(0 6.86991e-16 0)
(0 -1.57104e-15 0)
(0 -2.62403e-15 0)
(0 -1.97794e-15 0)
(0 -1.31968e-15 0)
(0 -2.24271e-15 0)
(0 -1.85222e-15 0)
(0 -1.06692e-15 0)
(0 -8.85902e-17 0)
(0 1.92992e-16 0)
(0 6.99385e-16 0)
(0 2.66147e-15 0)
(0 2.59245e-15 0)
(0 2.21934e-15 0)
(0 2.41803e-15 0)
(0 1.80689e-15 0)
(0 2.75757e-15 0)
(0 3.41245e-15 0)
(0 3.35875e-15 0)
(0 3.49695e-15 0)
(0 3.92462e-15 0)
(0 4.09765e-15 0)
(0 1.83737e-15 0)
(0 1.87606e-15 0)
(0 1.60795e-15 0)
(0 1.87332e-15 0)
(0 6.71075e-16 0)
(0 1.83441e-16 0)
(0 4.09429e-16 0)
(0 7.07144e-16 0)
(0 1.11505e-15 0)
(0 1.07972e-15 0)
(0 1.6807e-15 0)
(0 1.96102e-15 0)
(0 1.80551e-15 0)
(0 2.72594e-15 0)
(0 2.01622e-15 0)
(0 1.20843e-15 0)
(0 1.48929e-15 0)
(0 9.82744e-16 0)
(0 5.77837e-16 0)
(0 2.2336e-15 0)
(0 1.80308e-15 0)
(0 3.92478e-15 0)
(0 4.02279e-15 0)
(0 2.59547e-15 0)
(0 3.35998e-15 0)
(0 2.87306e-15 0)
(0 2.66035e-15 0)
(0 2.76872e-15 0)
(0 2.46258e-15 0)
(0 1.12748e-15 0)
(0 9.49295e-16 0)
(0 1.11918e-15 0)
(0 1.74706e-15 0)
(0 9.84564e-16 0)
(0 1.45262e-15 0)
(0 2.41968e-15 0)
(0 3.06758e-15 0)
(0 4.41878e-15 0)
(0 4.31394e-15 0)
(0 3.35394e-15 0)
(0 1.59488e-15 0)
(0 8.54712e-16 0)
(0 -8.49804e-17 0)
(0 1.19471e-16 0)
(0 9.88383e-16 0)
(0 1.02338e-15 0)
(0 9.83253e-16 0)
(0 -8.06894e-06 0)
(0 -1.88247e-05 0)
(0 -2.50986e-05 0)
(0 -2.75354e-05 0)
(0 -2.70054e-05 0)
(0 -2.44706e-05 0)
(0 -2.08471e-05 0)
(0 -1.68819e-05 0)
(0 -1.30962e-05 0)
(0 -9.79018e-06 0)
(0 -7.08627e-06 0)
(0 -4.98559e-06 0)
(0 -3.42055e-06 0)
(0 -2.29479e-06 0)
(0 -1.50889e-06 0)
(0 -9.74273e-07 0)
(0 -6.18757e-07 0)
(0 -3.87052e-07 0)
(0 -2.3874e-07 0)
(0 -1.45346e-07 0)
(0 -8.74063e-08 0)
(0 -5.19562e-08 0)
(0 -3.05442e-08 0)
(0 -1.77673e-08 0)
(0 -1.02304e-08 0)
(0 -5.83312e-09 0)
(0 -3.29444e-09 0)
(0 -1.84359e-09 0)
(0 -1.02252e-09 0)
(0 -5.62241e-10 0)
(0 -3.06573e-10 0)
(0 -1.65814e-10 0)
(0 -8.89854e-11 0)
(0 -4.73969e-11 0)
(0 -2.50631e-11 0)
(0 -1.31617e-11 0)
(0 -6.86701e-12 0)
(0 -3.56106e-12 0)
(0 -1.83614e-12 0)
(0 -9.42972e-13 0)
(0 -4.8152e-13 0)
(0 -2.44735e-13 0)
(0 -1.24572e-13 0)
(0 -6.25816e-14 0)
(0 -3.21756e-14 0)
(0 -1.75166e-14 0)
(0 -9.64641e-15 0)
(0 -5.93487e-15 0)
(0 -3.58176e-15 0)
(0 -2.91541e-16 0)
(0 1.57156e-17 0)
(0 1.17247e-15 0)
(0 1.27278e-15 0)
(0 2.44005e-15 0)
(0 2.72076e-15 0)
(0 2.87763e-15 0)
(0 3.10954e-15 0)
(0 3.19145e-15 0)
(0 3.31737e-15 0)
(0 2.9079e-15 0)
(0 2.45859e-15 0)
(0 1.38313e-15 0)
(0 8.19211e-16 0)
(0 -2.94079e-16 0)
(0 -3.21167e-16 0)
(0 -3.59983e-16 0)
(0 5.59357e-16 0)
(0 1.14377e-15 0)
(0 1.35886e-15 0)
(0 2.54161e-16 0)
(0 1.39393e-15 0)
(0 7.37123e-16 0)
(0 1.06025e-15 0)
(0 1.90564e-15 0)
(0 1.17322e-15 0)
(0 3.02562e-16 0)
(0 -5.08517e-16 0)
(0 -8.92755e-16 0)
(0 -1.47322e-15 0)
(0 2.64506e-16 0)
(0 1.31234e-16 0)
(0 -3.82008e-16 0)
(0 -4.63537e-16 0)
(0 -6.98882e-16 0)
(0 -1.90837e-15 0)
(0 -2.62785e-15 0)
(0 -3.76796e-15 0)
(0 -1.98953e-15 0)
(0 -1.90813e-15 0)
(0 -1.29344e-15 0)
(0 -1.02736e-15 0)
(0 -6.7547e-16 0)
(0 -1.20896e-15 0)
(0 -1.77128e-15 0)
(0 1.09626e-16 0)
(0 -1.67548e-15 0)
(0 -1.01936e-15 0)
(0 -7.62513e-16 0)
(0 -1.92512e-16 0)
(0 -2.05788e-15 0)
(0 -9.90846e-16 0)
(0 -3.09926e-16 0)
(0 -1.14161e-16 0)
(0 2.02371e-16 0)
(0 1.00621e-15 0)
(0 9.09238e-16 0)
(0 -2.14363e-16 0)
(0 1.64594e-15 0)
(0 2.18436e-15 0)
(0 1.72131e-15 0)
(0 1.67993e-15 0)
(0 5.76692e-16 0)
(0 1.67538e-16 0)
(0 -1.40988e-15 0)
(0 -8.14317e-16 0)
(0 4.8376e-16 0)
(0 7.5432e-16 0)
(0 4.19257e-16 0)
(0 -1.44028e-15 0)
(0 -1.18949e-16 0)
(0 5.21981e-16 0)
(0 7.245e-16 0)
(0 1.91973e-15 0)
(0 2.14273e-15 0)
(0 9.61161e-16 0)
(0 1.12894e-15 0)
(0 4.84704e-16 0)
(0 9.27338e-16 0)
(0 2.975e-16 0)
(0 2.7004e-16 0)
(0 -8.23891e-16 0)
(0 -7.30414e-17 0)
(0 9.061e-16 0)
(0 6.54175e-16 0)
(0 5.25823e-16 0)
(0 1.24863e-15 0)
(0 8.42676e-16 0)
(0 1.80682e-15 0)
(0 9.61868e-16 0)
(0 -2.62967e-16 0)
(0 5.77477e-16 0)
(0 5.26142e-16 0)
(0 9.84396e-16 0)
(0 -3.99749e-17 0)
(0 2.91939e-16 0)
(0 1.1384e-15 0)
(0 1.38412e-15 0)
(0 2.63903e-16 0)
(0 6.8799e-16 0)
(0 -1.62314e-17 0)
(0 -3.63393e-16 0)
(0 1.59337e-17 0)
(0 -4.63371e-16 0)
(0 -1.53387e-15 0)
(0 -6.17923e-16 0)
(0 -8.72455e-16 0)
(0 -1.09126e-15 0)
(0 -9.27688e-16 0)
(0 -3.68627e-16 0)
(0 -1.51725e-15 0)
(0 -2.22385e-15 0)
(0 -1.17871e-15 0)
(0 3.15617e-16 0)
(0 -1.78601e-16 0)
(0 1.5396e-16 0)
(0 4.2996e-16 0)
(0 1.10651e-16 0)
(0 1.13699e-15 0)
(0 8.02213e-16 0)
(0 -4.28938e-16 0)
(0 3.42695e-16 0)
(0 1.23325e-15 0)
(0 1.73605e-15 0)
(0 1.00478e-15 0)
(0 7.87812e-16 0)
(0 4.6537e-16 0)
(0 4.64886e-16 0)
(0 3.69086e-16 0)
(0 -2.69985e-16 0)
(0 -1.05873e-16 0)
(0 7.21544e-16 0)
(0 1.70232e-15 0)
(0 1.79874e-15 0)
(0 1.35249e-15 0)
(0 -1.21164e-16 0)
(0 -9.5458e-16 0)
(0 3.7483e-16 0)
(0 -1.1117e-15 0)
(0 -9.34218e-16 0)
(0 -1.2726e-15 0)
(0 -1.79376e-15 0)
(0 -2.27249e-15 0)
(0 -9.13962e-16 0)
(0 9.18088e-16 0)
(0 4.6177e-16 0)
(0 1.89203e-15 0)
(0 1.95649e-15 0)
(0 9.68928e-16 0)
(0 2.07392e-16 0)
(0 1.5214e-15 0)
(0 1.73862e-15 0)
(0 2.31831e-15 0)
(0 2.2369e-15 0)
(0 2.88503e-15 0)
(0 3.32084e-15 0)
(0 2.30974e-15 0)
(0 2.12939e-15 0)
(0 3.84663e-15 0)
(0 1.83852e-15 0)
(0 1.27138e-15 0)
(0 1.1392e-15 0)
(0 1.49321e-15 0)
(0 1.89813e-15 0)
(0 3.16057e-15 0)
(0 3.56498e-15 0)
(0 2.2194e-15 0)
(0 1.94974e-15 0)
(0 1.81521e-15 0)
(0 2.30179e-15 0)
(0 1.78958e-15 0)
(0 2.47865e-15 0)
(0 3.68472e-15 0)
(0 1.96675e-15 0)
(0 1.95228e-15 0)
(0 1.23871e-15 0)
(0 3.05619e-17 0)
(0 3.759e-16 0)
(0 8.91259e-16 0)
(0 1.33298e-15 0)
(0 1.1574e-15 0)
(0 1.13601e-15 0)
(0 6.29481e-16 0)
(0 5.76925e-16 0)
(0 -1.02644e-15 0)
(0 -2.05406e-15 0)
(0 -1.9011e-15 0)
(0 -1.81202e-15 0)
(0 -1.53753e-15 0)
(0 -1.21594e-15 0)
(0 -1.28573e-15 0)
(0 -2.09146e-15 0)
(0 -2.83963e-15 0)
(0 -2.03516e-15 0)
(0 -4.84422e-16 0)
(0 1.53116e-16 0)
(0 1.24702e-15 0)
(0 9.9012e-16 0)
(0 9.0731e-16 0)
(0 8.09788e-16 0)
(0 1.76655e-15 0)
(0 2.34115e-15 0)
(0 2.14407e-15 0)
(0 1.27089e-15 0)
(0 1.42343e-15 0)
(0 1.08741e-15 0)
(0 1.17946e-15 0)
(0 1.786e-15 0)
(0 1.878e-15 0)
(0 7.55661e-16 0)
(0 1.43458e-15 0)
(0 1.78459e-15 0)
(0 2.19303e-15 0)
(0 2.79864e-15 0)
(0 3.02072e-15 0)
(0 3.2384e-15 0)
(0 3.44089e-15 0)
(0 2.78501e-15 0)
(0 3.45618e-15 0)
(0 3.16529e-15 0)
(0 2.96939e-15 0)
(0 2.27813e-15 0)
(0 1.76831e-15 0)
(0 1.01351e-15 0)
(0 1.54041e-15 0)
(0 1.63956e-15 0)
(0 1.55579e-15 0)
(0 2.26422e-15 0)
(0 1.65056e-15 0)
(0 2.20585e-15 0)
(0 2.16499e-15 0)
(0 2.31796e-15 0)
(0 2.53734e-15 0)
(0 1.41806e-15 0)
(0 1.29308e-15 0)
(0 1.32595e-15 0)
(0 2.2869e-15 0)
(0 3.36638e-15 0)
(0 4.20678e-15 0)
(0 3.96506e-15 0)
(0 3.26456e-15 0)
(0 2.79543e-15 0)
(0 2.55774e-15 0)
(0 2.88395e-15 0)
(0 3.94325e-15 0)
(0 3.71944e-15 0)
(0 3.9624e-15 0)
(0 4.15766e-15 0)
(0 3.78524e-15 0)
(0 3.79639e-15 0)
(0 2.5243e-15 0)
(0 1.83917e-15 0)
(0 1.04267e-15 0)
(0 7.52731e-16 0)
(0 1.37137e-15 0)
(0 2.10975e-15 0)
(0 2.32118e-15 0)
(0 2.497e-15 0)
(0 2.60239e-15 0)
(0 3.28608e-15 0)
(0 2.60183e-15 0)
(0 3.50396e-15 0)
(0 2.57818e-15 0)
(0 3.08116e-15 0)
(0 1.85415e-15 0)
(0 1.30631e-15 0)
(0 7.70005e-16 0)
(0 1.06759e-15 0)
(0 2.0871e-15 0)
(0 2.00166e-15 0)
(0 7.91349e-16 0)
(0 1.87359e-16 0)
(0 9.05676e-16 0)
(0 1.19365e-15 0)
(0 1.10145e-15 0)
(0 1.50056e-15 0)
(0 1.90114e-15 0)
(0 9.63921e-16 0)
(0 -2.99111e-16 0)
(0 2.58093e-16 0)
(0 3.10431e-16 0)
(0 1.42817e-15 0)
(0 1.83057e-15 0)
(0 2.64355e-15 0)
(0 2.91877e-15 0)
(0 1.37863e-15 0)
(0 2.14804e-15 0)
(0 1.23619e-15 0)
(0 7.53582e-16 0)
(0 1.09409e-16 0)
(0 5.88307e-16 0)
(0 1.4051e-15 0)
(0 2.31249e-15 0)
(0 3.14336e-15 0)
(0 2.77399e-15 0)
(0 1.82912e-15 0)
(0 1.09256e-15 0)
(0 -3.16514e-16 0)
(0 6.46788e-16 0)
(0 1.57081e-15 0)
(0 1.60415e-15 0)
(0 2.27794e-15 0)
(0 2.58918e-15 0)
(0 1.35704e-15 0)
(0 -1.83202e-16 0)
(0 7.3942e-16 0)
(0 1.35543e-16 0)
(0 1.27765e-15 0)
(0 1.93801e-15 0)
(0 2.32812e-15 0)
(0 2.1547e-15 0)
(0 1.84103e-15 0)
(0 1.67355e-15 0)
(0 2.19347e-15 0)
(0 1.91635e-15 0)
(0 2.14934e-15 0)
(0 2.48091e-15 0)
(0 2.68369e-15 0)
(0 2.99945e-15 0)
(0 2.83191e-15 0)
(0 1.89548e-15 0)
(0 1.06848e-15 0)
(0 1.97047e-15 0)
(0 3.79471e-15 0)
(0 2.47287e-15 0)
(0 2.6341e-15 0)
(0 2.81238e-15 0)
(0 3.3492e-15 0)
(0 1.92847e-15 0)
(0 2.52277e-15 0)
(0 2.71537e-15 0)
(0 3.42458e-15 0)
(0 2.2382e-15 0)
(0 7.76495e-16 0)
(0 1.55639e-15 0)
(0 7.16538e-16 0)
(0 1.54817e-15 0)
(0 1.6597e-15 0)
(0 3.63004e-15 0)
(0 3.37275e-15 0)
(0 4.47506e-15 0)
(0 4.6227e-15 0)
(0 4.6553e-15 0)
(0 4.49161e-15 0)
(0 4.67642e-15 0)
(0 3.78461e-15 0)
(0 3.69743e-15 0)
(0 3.54755e-15 0)
(0 2.64544e-15 0)
(0 2.17828e-15 0)
(0 1.73728e-15 0)
(0 1.91307e-15 0)
(0 1.96426e-15 0)
(0 1.1184e-15 0)
(0 1.54893e-15 0)
(0 3.15237e-15 0)
(0 4.18646e-15 0)
(0 3.22479e-15 0)
(0 2.2833e-15 0)
(0 1.61915e-15 0)
(0 1.57366e-15 0)
(0 3.4989e-15 0)
(0 3.12922e-15 0)
(0 2.9139e-15 0)
(0 3.48004e-15 0)
(0 3.8517e-15 0)
(0 3.29e-15 0)
(0 2.736e-15 0)
(0 2.96775e-15 0)
(0 1.74579e-15 0)
(0 1.43548e-15 0)
(0 2.03163e-15 0)
(0 2.30841e-15 0)
(0 3.52405e-15 0)
(0 3.5247e-15 0)
(0 3.49053e-15 0)
(0 2.4228e-15 0)
(0 1.84263e-15 0)
(0 2.53499e-15 0)
(0 1.84649e-15 0)
(0 1.02173e-15 0)
(0 1.48514e-15 0)
(0 -2.09272e-16 0)
(0 -1.83069e-15 0)
(0 -3.81758e-15 0)
(0 -2.86767e-15 0)
(0 -2.75524e-15 0)
(0 -3.27351e-15 0)
(0 -1.69655e-15 0)
(0 -6.27398e-16 0)
(0 6.64553e-16 0)
(0 1.45423e-15 0)
(0 1.92044e-15 0)
(0 2.44461e-15 0)
(0 2.7105e-15 0)
(0 2.57444e-15 0)
(0 2.97953e-15 0)
(0 2.03979e-15 0)
(0 2.5799e-15 0)
(0 2.9996e-15 0)
(0 4.38419e-15 0)
(0 4.57226e-15 0)
(0 4.47365e-15 0)
(0 4.06077e-15 0)
(0 4.31688e-15 0)
(0 2.68193e-15 0)
(0 1.77592e-15 0)
(0 1.64079e-15 0)
(0 3.47305e-16 0)
(0 -3.85071e-16 0)
(0 3.28549e-16 0)
(0 5.78431e-16 0)
(0 5.10439e-16 0)
(0 6.02413e-16 0)
(0 1.62217e-15 0)
(0 2.45156e-15 0)
(0 2.44988e-15 0)
(0 2.9333e-15 0)
(0 3.69928e-15 0)
(0 3.08323e-15 0)
(0 2.71873e-15 0)
(0 6.42011e-16 0)
(0 7.17668e-16 0)
(0 2.19197e-15 0)
(0 2.03284e-15 0)
(0 3.26205e-15 0)
(0 4.28062e-15 0)
(0 5.29945e-15 0)
(0 4.66099e-15 0)
(0 2.49196e-15 0)
(0 2.56796e-15 0)
(0 3.03064e-15 0)
(0 2.7306e-15 0)
(0 1.71561e-15 0)
(0 1.88253e-15 0)
(0 1.65109e-15 0)
(0 1.4194e-15 0)
(0 1.88414e-15 0)
(0 1.48223e-15 0)
(0 3.2581e-15 0)
(0 4.57548e-15 0)
(0 5.51157e-15 0)
(0 4.19036e-15 0)
(0 3.26717e-15 0)
(0 1.68011e-15 0)
(0 1.34975e-15 0)
(0 1.09817e-16 0)
(0 3.29974e-16 0)
(0 1.44405e-15 0)
(0 6.72906e-16 0)
(0 2.02452e-15 0)
(0 -1.1509e-05 0)
(0 -2.68137e-05 0)
(0 -3.56596e-05 0)
(0 -3.90044e-05 0)
(0 -3.81295e-05 0)
(0 -3.44374e-05 0)
(0 -2.92466e-05 0)
(0 -2.36168e-05 0)
(0 -1.82762e-05 0)
(0 -1.36352e-05 0)
(0 -9.85409e-06 0)
(0 -6.92523e-06 0)
(0 -4.74801e-06 0)
(0 -3.18432e-06 0)
(0 -2.09376e-06 0)
(0 -1.35226e-06 0)
(0 -8.59223e-07 0)
(0 -5.37819e-07 0)
(0 -3.31994e-07 0)
(0 -2.02295e-07 0)
(0 -1.21769e-07 0)
(0 -7.24539e-08 0)
(0 -4.26379e-08 0)
(0 -2.48279e-08 0)
(0 -1.43109e-08 0)
(0 -8.16827e-09 0)
(0 -4.61814e-09 0)
(0 -2.58705e-09 0)
(0 -1.43637e-09 0)
(0 -7.90624e-10 0)
(0 -4.3155e-10 0)
(0 -2.33653e-10 0)
(0 -1.25521e-10 0)
(0 -6.69256e-11 0)
(0 -3.54264e-11 0)
(0 -1.8622e-11 0)
(0 -9.72495e-12 0)
(0 -5.04713e-12 0)
(0 -2.60592e-12 0)
(0 -1.33821e-12 0)
(0 -6.84149e-13 0)
(0 -3.48151e-13 0)
(0 -1.77573e-13 0)
(0 -8.91699e-14 0)
(0 -4.56412e-14 0)
(0 -2.44547e-14 0)
(0 -1.26101e-14 0)
(0 -6.57093e-15 0)
(0 -2.48816e-15 0)
(0 -4.21627e-16 0)
(0 -2.74208e-16 0)
(0 6.96988e-16 0)
(0 1.48933e-15 0)
(0 2.20553e-15 0)
(0 2.31868e-15 0)
(0 4.57105e-15 0)
(0 4.68146e-15 0)
(0 4.64762e-15 0)
(0 5.10889e-15 0)
(0 4.76065e-15 0)
(0 3.3778e-15 0)
(0 2.88648e-15 0)
(0 6.03992e-16 0)
(0 3.04119e-17 0)
(0 -1.36866e-16 0)
(0 7.54222e-16 0)
(0 1.43889e-15 0)
(0 2.18975e-15 0)
(0 1.59336e-15 0)
(0 1.24031e-15 0)
(0 2.33407e-15 0)
(0 1.74017e-15 0)
(0 2.98505e-15 0)
(0 2.14312e-15 0)
(0 1.84684e-15 0)
(0 8.03618e-16 0)
(0 -6.11999e-16 0)
(0 1.05345e-16 0)
(0 -2.19913e-16 0)
(0 6.6084e-16 0)
(0 6.33425e-16 0)
(0 7.48739e-16 0)
(0 3.78055e-16 0)
(0 -8.05187e-16 0)
(0 -1.95101e-15 0)
(0 -2.25327e-15 0)
(0 -2.19292e-15 0)
(0 -3.5351e-15 0)
(0 -2.07665e-15 0)
(0 -1.33769e-15 0)
(0 -8.23616e-16 0)
(0 -4.77817e-16 0)
(0 -3.70427e-16 0)
(0 -1.26746e-15 0)
(0 1.53947e-16 0)
(0 -6.13525e-16 0)
(0 -1.12357e-15 0)
(0 -1.47513e-15 0)
(0 -9.15919e-16 0)
(0 -1.70597e-15 0)
(0 -2.10988e-15 0)